material_id,formula_pretty,formation_energy_per_atom,energy_above_hull,is_stable,band_gap,total_magnetization,nsites,density,volume,energy_per_atom,e_total,is_magnetic,space_group_symbol,space_group_number,crystal_system,point_group,ordering,icsd_ids,has_props,lattice_a,lattice_b,lattice_c,lattice_alpha,lattice_beta,lattice_gamma
mp-cotyu,NbS2,-1.310397668333332,0.038142871666664004,False,0.0,0.1548553,9,3.135806549268075,249.4717449279271,-7.43576449,,False,P1,1,Triclinic,1,NM,,"{'materials': True, 'thermo': True, 'xas': False, 'grain_boundaries': False, 'chemenv': True, 'electronic_structure': True, 'absorption': False, 'bandstructure': False, 'dos': False, 'magnetism': True, 'elasticity': False, 'dielectric': False, 'piezoelectric': False, 'surface_properties': False, 'oxi_states': True, 'provenance': True, 'charge_density': True, 'eos': False, 'phonon': False, 'insertion_electrodes': False, 'substrates': False}",,,,,,
mp-cptfr,NbS3,-1.14945814645833,0.0,True,0.0,3e-07,24,3.978460079867045,473.56548423398874,-6.777832690833333,,False,P2_1/m,11,Monoclinic,2/m,NM,icsd-645316,"{'materials': True, 'thermo': True, 'xas': True, 'grain_boundaries': False, 'chemenv': True, 'electronic_structure': True, 'absorption': False, 'bandstructure': True, 'dos': True, 'magnetism': True, 'elasticity': False, 'dielectric': False, 'piezoelectric': False, 'surface_properties': False, 'oxi_states': True, 'provenance': True, 'charge_density': True, 'eos': False, 'phonon': False, 'insertion_electrodes': False, 'substrates': False}",,,,,,
mp-cfkki,NbS2,-1.079420891666667,0.26911964833333,False,0.0,0.002615499999999,3,4.14551089052322,62.90299332310541,-7.204787713333334,,False,I4/mmm,139,Tetragonal,4/mmm,NM,icsd-237035,"{'materials': True, 'thermo': True, 'xas': True, 'grain_boundaries': False, 'chemenv': True, 'electronic_structure': True, 'absorption': False, 'bandstructure': True, 'dos': True, 'magnetism': True, 'elasticity': True, 'dielectric': False, 'piezoelectric': False, 'surface_properties': False, 'oxi_states': True, 'provenance': True, 'charge_density': True, 'eos': False, 'phonon': False, 'insertion_electrodes': False, 'substrates': True}",,,,,,
mp-ble,NbS2,-1.3467318399999981,0.001808699999999,False,0.0,0.8587013,3,4.171511929589814,62.51091888716809,-7.472098661666664,,True,R3m,160,Trigonal,3m,FM,"icsd-645321,icsd-645308,icsd-645309,icsd-42099,icsd-43696,icsd-237034","{'materials': True, 'thermo': True, 'xas': True, 'grain_boundaries': False, 'chemenv': True, 'electronic_structure': True, 'absorption': False, 'bandstructure': True, 'dos': True, 'magnetism': True, 'elasticity': False, 'dielectric': False, 'piezoelectric': False, 'surface_properties': False, 'oxi_states': True, 'provenance': True, 'charge_density': True, 'eos': False, 'phonon': False, 'insertion_electrodes': False, 'substrates': True}",,,,,,
mp-ceqby,NbS2,-1.305522709999997,0.043017830000001006,False,0.0,6.71e-05,3,4.192022793486482,62.20506345352335,-7.430889531666664,,False,P-3m1,164,Trigonal,-3m,NM,"icsd-237032,icsd-250594","{'materials': True, 'thermo': True, 'xas': True, 'grain_boundaries': False, 'chemenv': True, 'electronic_structure': True, 'absorption': False, 'bandstructure': True, 'dos': True, 'magnetism': True, 'elasticity': False, 'dielectric': False, 'piezoelectric': False, 'surface_properties': False, 'oxi_states': True, 'provenance': True, 'charge_density': True, 'eos': False, 'phonon': False, 'insertion_electrodes': False, 'substrates': True}",,,,,,
mp-cri,NbS2,-1.30421061333333,0.044329926666667005,False,0.0,0.0,3,4.127853507996626,63.17206833098109,-7.429577434999998,,False,R-3m,166,Trigonal,-3m,NM,icsd-24755,"{'materials': True, 'thermo': True, 'xas': True, 'grain_boundaries': False, 'chemenv': True, 'electronic_structure': True, 'absorption': False, 'bandstructure': True, 'dos': True, 'magnetism': True, 'elasticity': False, 'dielectric': False, 'piezoelectric': False, 'surface_properties': False, 'oxi_states': True, 'provenance': True, 'charge_density': True, 'eos': False, 'phonon': False, 'insertion_electrodes': False, 'substrates': True}",,,,,,
mp-cuc,NbS2,-1.329801329999998,0.018739209999999,False,0.0,0.859492399999999,3,1.787735886198265,145.863293275371,-7.4551681516666655,,True,P-6m2,187,Hexagonal,-6m2,FM,"icsd-89238,icsd-150273,icsd-98568,icsd-50648,icsd-85578,icsd-41090,icsd-150271,icsd-150215,icsd-67443","{'materials': True, 'thermo': True, 'xas': True, 'grain_boundaries': False, 'chemenv': True, 'electronic_structure': True, 'absorption': False, 'bandstructure': True, 'dos': True, 'magnetism': True, 'elasticity': True, 'dielectric': False, 'piezoelectric': False, 'surface_properties': False, 'oxi_states': True, 'provenance': True, 'charge_density': True, 'eos': False, 'phonon': False, 'insertion_electrodes': False, 'substrates': True}",,,,,,
mp-dih,NbS,-1.13542374875,0.082792016554877,False,0.0,0.000507,2,6.545345160925282,31.704952694592173,-8.254775125,,False,P-6m2,187,Hexagonal,-6m2,NM,"icsd-645320,icsd-76564","{'materials': True, 'thermo': True, 'xas': True, 'grain_boundaries': False, 'chemenv': True, 'electronic_structure': True, 'absorption': False, 'bandstructure': True, 'dos': True, 'magnetism': True, 'elasticity': True, 'dielectric': False, 'piezoelectric': False, 'surface_properties': False, 'oxi_states': True, 'provenance': True, 'charge_density': True, 'eos': False, 'phonon': False, 'insertion_electrodes': False, 'substrates': True}",,,,,,
mp-ovx,NbS2,-1.348540539999998,0.0,True,0.0,1.7276673,6,4.203264240289562,124.07739745121462,-7.473907361666665,,True,P6_3/mmc,194,Hexagonal,6/mmm,FM,"icsd-43697,icsd-250595,icsd-603911,icsd-237033","{'materials': True, 'thermo': True, 'xas': True, 'grain_boundaries': False, 'chemenv': True, 'electronic_structure': True, 'absorption': False, 'bandstructure': True, 'dos': True, 'magnetism': True, 'elasticity': False, 'dielectric': False, 'piezoelectric': False, 'surface_properties': False, 'oxi_states': True, 'provenance': True, 'charge_density': True, 'eos': False, 'phonon': False, 'insertion_electrodes': True, 'substrates': True}",,,,,,
mp-cjawe,NbS2,-1.330876201666663,0.017664338333335,False,0.0,1.719573,6,3.039372449123209,171.59137172719176,-7.45624302333333,,True,P6_3/mmc,194,Hexagonal,6/mmm,FM,icsd-200100,"{'materials': True, 'thermo': True, 'xas': True, 'grain_boundaries': False, 'chemenv': True, 'electronic_structure': True, 'absorption': False, 'bandstructure': True, 'dos': True, 'magnetism': True, 'elasticity': False, 'dielectric': False, 'piezoelectric': False, 'surface_properties': False, 'oxi_states': True, 'provenance': True, 'charge_density': True, 'eos': False, 'phonon': False, 'insertion_electrodes': True, 'substrates': False}",,,,,,
mp-yx,NbS,-1.15248608125,0.065729684054877,False,0.0,4e-07,4,6.564374062451515,63.22609184748805,-8.2718374575,,False,P6_3/mmc,194,Hexagonal,6/mmm,NM,"icsd-645304,icsd-44992","{'materials': True, 'thermo': True, 'xas': True, 'grain_boundaries': False, 'chemenv': True, 'electronic_structure': True, 'absorption': False, 'bandstructure': True, 'dos': True, 'magnetism': True, 'elasticity': True, 'dielectric': False, 'piezoelectric': False, 'surface_properties': False, 'oxi_states': True, 'provenance': True, 'charge_density': True, 'eos': False, 'phonon': False, 'insertion_electrodes': False, 'substrates': True}",,,,,,
mp-bscgv,NbS2,-1.2909205533333301,0.057619986666668004,False,0.0,0.0009454,6,3.718746016454346,140.2435351667659,-7.416287374999997,,False,P6_3/mmc,194,Hexagonal,6/mmm,NM,,"{'materials': True, 'thermo': True, 'xas': False, 'grain_boundaries': False, 'chemenv': True, 'electronic_structure': True, 'absorption': False, 'bandstructure': True, 'dos': True, 'magnetism': True, 'elasticity': False, 'dielectric': False, 'piezoelectric': False, 'surface_properties': False, 'oxi_states': True, 'provenance': True, 'charge_density': True, 'eos': False, 'phonon': False, 'insertion_electrodes': False, 'substrates': True}",,,,,,
mp-bfzng,NbS3,-1.138030066041664,0.011428080416667001,False,0.40479999999999905,0.0,16,3.916305944705787,320.7208358810301,-6.766404610416665,10.256183243333334,False,P-1,2,Triclinic,-1,NM,"icsd-2380,icsd-645323,icsd-656322","{'materials': True, 'thermo': True, 'xas': True, 'grain_boundaries': False, 'chemenv': True, 'electronic_structure': True, 'absorption': False, 'bandstructure': True, 'dos': True, 'magnetism': True, 'elasticity': True, 'dielectric': True, 'piezoelectric': False, 'surface_properties': False, 'oxi_states': True, 'provenance': True, 'charge_density': True, 'eos': False, 'phonon': False, 'insertion_electrodes': False, 'substrates': True}",,,,,,
mp-bfnqo,NbS2,-1.33835678083333,0.010183759166667,False,0.0,3.4538593,12,2.8096325885832822,371.2443326960839,-7.463723602499997,,True,Cmc2_1,36,Orthorhombic,mm2,FM,icsd-68968,"{'materials': True, 'thermo': True, 'xas': True, 'grain_boundaries': False, 'chemenv': True, 'electronic_structure': True, 'absorption': False, 'bandstructure': True, 'dos': True, 'magnetism': True, 'elasticity': False, 'dielectric': False, 'piezoelectric': False, 'surface_properties': False, 'oxi_states': True, 'provenance': True, 'charge_density': True, 'eos': False, 'phonon': False, 'insertion_electrodes': False, 'substrates': True}",,,,,,
mp-bjzpz,NbS2,-1.057000578333333,0.291539961666664,False,0.0,0.096111599999999,3,4.65582216414972,56.008377183166246,-7.1823674,,False,Amm2,38,Orthorhombic,mm2,NM,,"{'materials': True, 'thermo': True, 'xas': True, 'grain_boundaries': False, 'chemenv': True, 'electronic_structure': True, 'absorption': False, 'bandstructure': True, 'dos': True, 'magnetism': True, 'elasticity': False, 'dielectric': False, 'piezoelectric': False, 'surface_properties': False, 'oxi_states': True, 'provenance': True, 'charge_density': True, 'eos': False, 'phonon': False, 'insertion_electrodes': False, 'substrates': True}",,,,,,
mp-bfpll,NbS2,-1.329688219999997,0.018852320000000002,False,0.0,0.8594634,3,1.201714514128466,216.9941702472992,-7.455055041666664,,True,Fmm2,42,Orthorhombic,mm2,FM,icsd-66358,"{'materials': True, 'thermo': True, 'xas': True, 'grain_boundaries': False, 'chemenv': True, 'electronic_structure': True, 'absorption': False, 'bandstructure': True, 'dos': True, 'magnetism': True, 'elasticity': False, 'dielectric': False, 'piezoelectric': False, 'surface_properties': False, 'oxi_states': True, 'provenance': True, 'charge_density': True, 'eos': False, 'phonon': False, 'insertion_electrodes': False, 'substrates': True}",,,,,,
mp-dxw,NbS2,-1.329370606666663,0.019169933333334003,False,0.0,0.8663436,3,2.311922970134099,112.7914066498148,-7.45473742833333,,True,Fmm2,42,Orthorhombic,mm2,FM,"icsd-72725,icsd-80571,icsd-280986,icsd-72647,icsd-79514,icsd-68704,icsd-153541","{'materials': True, 'thermo': True, 'xas': True, 'grain_boundaries': False, 'chemenv': True, 'electronic_structure': True, 'absorption': False, 'bandstructure': True, 'dos': True, 'magnetism': True, 'elasticity': False, 'dielectric': False, 'piezoelectric': False, 'surface_properties': False, 'oxi_states': True, 'provenance': True, 'charge_density': True, 'eos': False, 'phonon': False, 'insertion_electrodes': False, 'substrates': True}",,,,,,
mp-cqwus,NbS6,0.6840770935714291,1.340910320119047,False,0.06329999999999901,4.9285446,7,0.11939181829879401,3967.992039152498,-4.30530738,,True,Cmmm,65,Orthorhombic,mmm,FM,,"{'materials': True, 'thermo': True, 'xas': False, 'grain_boundaries': False, 'chemenv': False, 'electronic_structure': True, 'absorption': False, 'bandstructure': False, 'dos': False, 'magnetism': True, 'elasticity': False, 'dielectric': False, 'piezoelectric': False, 'surface_properties': False, 'oxi_states': True, 'provenance': True, 'charge_density': False, 'eos': False, 'phonon': False, 'insertion_electrodes': False, 'substrates': False}",,,,,,
mp-crlsj,Nb3S5,-1.419639321562498,0.00046860218750100006,False,0.06570000000000001,1e-07,16,4.898179977139635,297.681975686626,-7.793502281874999,,False,P1,1,Triclinic,1,NM,,"{'materials': True, 'thermo': True, 'xas': False, 'grain_boundaries': False, 'chemenv': True, 'electronic_structure': True, 'absorption': False, 'bandstructure': False, 'dos': False, 'magnetism': True, 'elasticity': False, 'dielectric': False, 'piezoelectric': False, 'surface_properties': False, 'oxi_states': True, 'provenance': True, 'charge_density': True, 'eos': False, 'phonon': False, 'insertion_electrodes': False, 'substrates': False}",,,,,,
mp-bwup,Nb3S5,-1.420107923749999,0.0,True,0.0,1.5700000000000002e-05,32,4.896630350356049,595.5523650085518,-7.7939708840625,,False,P1,1,Triclinic,1,NM,,"{'materials': True, 'thermo': True, 'xas': True, 'grain_boundaries': False, 'chemenv': True, 'electronic_structure': True, 'absorption': False, 'bandstructure': False, 'dos': False, 'magnetism': True, 'elasticity': False, 'dielectric': False, 'piezoelectric': False, 'surface_properties': False, 'oxi_states': True, 'provenance': True, 'charge_density': True, 'eos': False, 'phonon': False, 'insertion_electrodes': False, 'substrates': True}",,,,,,
mp-crlrj,Nb3S4,-1.309368832857143,0.07749125357142801,False,0.0,6e-07,7,5.424419246267592,124.58564328822388,-8.00272682857143,,False,P-3m1,164,Trigonal,-3m,NM,,"{'materials': True, 'thermo': True, 'xas': False, 'grain_boundaries': False, 'chemenv': True, 'electronic_structure': True, 'absorption': False, 'bandstructure': True, 'dos': True, 'magnetism': True, 'elasticity': False, 'dielectric': False, 'piezoelectric': False, 'surface_properties': False, 'oxi_states': True, 'provenance': True, 'charge_density': True, 'eos': False, 'phonon': False, 'insertion_electrodes': False, 'substrates': False}",,,,,,
mp-srr,Nb3S4,-1.386860086428572,0.0,True,0.0,1.699999999999999e-06,14,4.889994234425116,276.40309123624985,-8.080218082142858,,False,P6_3/m,176,Hexagonal,6/m,NM,"icsd-645317,icsd-76567","{'materials': True, 'thermo': True, 'xas': True, 'grain_boundaries': False, 'chemenv': True, 'electronic_structure': True, 'absorption': False, 'bandstructure': True, 'dos': True, 'magnetism': True, 'elasticity': False, 'dielectric': False, 'piezoelectric': False, 'surface_properties': False, 'oxi_states': True, 'provenance': True, 'charge_density': True, 'eos': False, 'phonon': False, 'insertion_electrodes': True, 'substrates': True}",,,,,,
mp-crlsg,Nb5S8,-1.40351744051282,0.010622922692307002,False,0.0,5.041913,39,4.815034847738142,745.9976221513351,-7.8347256635897455,,True,P312,149,Trigonal,32,FM,,"{'materials': True, 'thermo': True, 'xas': False, 'grain_boundaries': False, 'chemenv': True, 'electronic_structure': True, 'absorption': False, 'bandstructure': False, 'dos': False, 'magnetism': True, 'elasticity': False, 'dielectric': False, 'piezoelectric': False, 'surface_properties': False, 'oxi_states': True, 'provenance': True, 'charge_density': True, 'eos': False, 'phonon': False, 'insertion_electrodes': False, 'substrates': False}",,,,,,
mp-crllj,Nb7S8,-1.227522037333333,0.069394411162601,False,0.0,0.1622383,15,5.9267607365360195,254.08216443862412,-8.148076502666667,,False,P3m1,156,Trigonal,3m,NM,,"{'materials': True, 'thermo': True, 'xas': False, 'grain_boundaries': False, 'chemenv': True, 'electronic_structure': True, 'absorption': False, 'bandstructure': False, 'dos': True, 'magnetism': True, 'elasticity': False, 'dielectric': False, 'piezoelectric': False, 'surface_properties': False, 'oxi_states': True, 'provenance': True, 'charge_density': True, 'eos': False, 'phonon': False, 'insertion_electrodes': False, 'substrates': False}",,,,,,
mp-coudp,Nb11S12,-0.7081621015217391,0.561380196299045,False,0.0,0.0048143,46,4.825665315666877,968.1415838154809,-7.697863318478261,,False,C2/c,15,Monoclinic,2/m,NM,,"{'materials': True, 'thermo': True, 'xas': False, 'grain_boundaries': False, 'chemenv': False, 'electronic_structure': True, 'absorption': False, 'bandstructure': False, 'dos': False, 'magnetism': True, 'elasticity': False, 'dielectric': False, 'piezoelectric': False, 'surface_properties': False, 'oxi_states': True, 'provenance': True, 'charge_density': True, 'eos': False, 'phonon': False, 'insertion_electrodes': False, 'substrates': False}",,,,,,
mp-bmzhb,Nb11S12,-1.09510688347826,0.17443541434252302,False,0.0,0.0,46,10.289910533083733,454.02992053741957,-8.084808100434783,,False,R-3c,167,Trigonal,-3m,NM,,"{'materials': True, 'thermo': True, 'xas': False, 'grain_boundaries': False, 'chemenv': False, 'electronic_structure': True, 'absorption': False, 'bandstructure': False, 'dos': False, 'magnetism': True, 'elasticity': False, 'dielectric': False, 'piezoelectric': False, 'surface_properties': False, 'oxi_states': True, 'provenance': True, 'charge_density': False, 'eos': False, 'phonon': False, 'insertion_electrodes': False, 'substrates': True}",,,,,,
mp-bmxtl,Nb14S5,-0.6590267005263141,0.0,True,0.0,2.6e-06,76,7.693319009397218,1261.391268064481,-9.190882443815788,,False,Pnma,62,Orthorhombic,mmm,NM,icsd-26215,"{'materials': True, 'thermo': True, 'xas': True, 'grain_boundaries': False, 'chemenv': True, 'electronic_structure': True, 'absorption': False, 'bandstructure': False, 'dos': False, 'magnetism': True, 'elasticity': False, 'dielectric': False, 'piezoelectric': False, 'surface_properties': False, 'oxi_states': True, 'provenance': True, 'charge_density': True, 'eos': False, 'phonon': False, 'insertion_electrodes': False, 'substrates': True}",,,,,,
mp-bukz,Nb21S8,-0.679891663448273,0.009129852813289001,False,0.0,3.7e-06,29,7.5673995622454004,484.41074047510955,-9.135980888965515,,False,I4/m,87,Tetragonal,4/m,NM,icsd-76568,"{'materials': True, 'thermo': True, 'xas': True, 'grain_boundaries': False, 'chemenv': True, 'electronic_structure': True, 'absorption': False, 'bandstructure': True, 'dos': True, 'magnetism': True, 'elasticity': False, 'dielectric': False, 'piezoelectric': False, 'surface_properties': False, 'oxi_states': True, 'provenance': True, 'charge_density': True, 'eos': False, 'phonon': False, 'insertion_electrodes': False, 'substrates': True}",,,,,,
mp-bmyto,Nb25S48,-1.3650697605479452,0.0,True,0.0,6.1908288,73,4.282901789608942,1497.2642477824666,-7.54490148931507,,True,Cm,8,Monoclinic,m,FM,,"{'materials': True, 'thermo': True, 'xas': True, 'grain_boundaries': False, 'chemenv': True, 'electronic_structure': True, 'absorption': False, 'bandstructure': False, 'dos': False, 'magnetism': True, 'elasticity': False, 'dielectric': False, 'piezoelectric': False, 'surface_properties': False, 'oxi_states': True, 'provenance': True, 'charge_density': False, 'eos': False, 'phonon': False, 'insertion_electrodes': False, 'substrates': False}",,,,,,
mp-csncx,MoS3,0.7721378203125011,1.49674472921875,False,0.014299999999999001,4.9000000000000005e-06,4,1.149118597402894,277.64555745792114,-11.771384960078123,,True,P1,1,Triclinic,1,FiM,,"{'materials': True, 'thermo': True, 'xas': False, 'grain_boundaries': False, 'chemenv': True, 'electronic_structure': True, 'absorption': False, 'bandstructure': False, 'dos': False, 'magnetism': True, 'elasticity': False, 'dielectric': False, 'piezoelectric': False, 'surface_properties': False, 'oxi_states': True, 'provenance': True, 'charge_density': True, 'eos': False, 'phonon': False, 'insertion_electrodes': False, 'substrates': False}",,,,,,
mp-csncj,MoS3,-0.4216751609375,0.302931747968749,False,0.7267,0.00024339999999900002,8,3.048133057110382,209.33972866896224,-12.965197941328125,,False,P2_1/m,11,Monoclinic,2/m,NM,,"{'materials': True, 'thermo': True, 'xas': False, 'grain_boundaries': False, 'chemenv': True, 'electronic_structure': True, 'absorption': False, 'bandstructure': True, 'dos': True, 'magnetism': True, 'elasticity': False, 'dielectric': False, 'piezoelectric': False, 'surface_properties': False, 'oxi_states': True, 'provenance': True, 'charge_density': True, 'eos': False, 'phonon': False, 'insertion_electrodes': False, 'substrates': False}",,,,,,