material_id,formula_pretty,formation_energy_per_atom,energy_above_hull,is_stable,band_gap,total_magnetization,nsites,density,volume,energy_per_atom,e_total,is_magnetic,space_group_symbol,space_group_number,crystal_system,point_group,ordering,icsd_ids,has_props,lattice_a,lattice_b,lattice_c,lattice_alpha,lattice_beta,lattice_gamma
mp-cfxyp,PbS,-0.7220768687499991,0.061973434999998,False,0.011899999999999002,0.0,4,7.361777503033111,107.93830147850964,-4.647099260000001,,False,P6_3/mmc,194,Hexagonal,6/mmm,NM,icsd-183244,"{'materials': True, 'thermo': True, 'xas': True, 'grain_boundaries': False, 'chemenv': True, 'electronic_structure': True, 'absorption': False, 'bandstructure': True, 'dos': True, 'magnetism': True, 'elasticity': False, 'dielectric': False, 'piezoelectric': False, 'surface_properties': False, 'oxi_states': True, 'provenance': True, 'charge_density': True, 'eos': False, 'phonon': False, 'insertion_electrodes': False, 'substrates': True}",,,,,,
mp-bfdf,PbS,-0.525332178749998,0.258718124999999,False,0.0,0.001670099999999,2,8.145996822982355,48.77351273316468,-4.45035457,,False,Pm-3m,221,Cubic,m-3m,NM,"icsd-77865,icsd-183242","{'materials': True, 'thermo': True, 'xas': True, 'grain_boundaries': False, 'chemenv': True, 'electronic_structure': True, 'absorption': False, 'bandstructure': True, 'dos': True, 'magnetism': True, 'elasticity': False, 'dielectric': False, 'piezoelectric': False, 'surface_properties': False, 'oxi_states': True, 'provenance': True, 'charge_density': True, 'eos': False, 'phonon': False, 'insertion_electrodes': False, 'substrates': True}",,,,,,
mp-bfmi,PbS,-0.7840503037499971,0.0,True,0.46669999999999906,0.0,8,7.445972212994699,213.4355962686329,-4.709072695,323.7562706506478,False,Fm-3m,225,Cubic,mmm,NM,"icsd-62190,icsd-648436,icsd-63095,icsd-250762,icsd-53932,icsd-38293,icsd-601032,icsd-648440,icsd-169770,icsd-186786,icsd-648450,icsd-603902,icsd-648435,icsd-290053,icsd-657560,icsd-62192,icsd-648434,icsd-648439,icsd-62193,icsd-648444,icsd-62191,icsd-648453,icsd-648452,icsd-648449,icsd-183239,icsd-648442,icsd-648447,icsd-183004,icsd-193679,icsd-648441,icsd-648437,icsd-648443,icsd-600243","{'materials': True, 'thermo': True, 'xas': True, 'grain_boundaries': False, 'chemenv': True, 'electronic_structure': True, 'absorption': True, 'bandstructure': True, 'dos': True, 'magnetism': True, 'elasticity': False, 'dielectric': True, 'piezoelectric': False, 'surface_properties': False, 'oxi_states': True, 'provenance': True, 'charge_density': True, 'eos': True, 'phonon': True, 'insertion_electrodes': False, 'substrates': True}",,,,,,
mp-cjkbw,PbS,-0.614688432499998,0.16936187124999902,False,1.1332,4.5e-06,8,5.881512109851126,270.208662227922,-4.53971082375,,False,Pma2,28,Orthorhombic,mm2,NM,"icsd-183251,icsd-183250,icsd-183249","{'materials': True, 'thermo': True, 'xas': False, 'grain_boundaries': False, 'chemenv': True, 'electronic_structure': True, 'absorption': False, 'bandstructure': True, 'dos': True, 'magnetism': True, 'elasticity': False, 'dielectric': False, 'piezoelectric': False, 'surface_properties': False, 'oxi_states': True, 'provenance': True, 'charge_density': False, 'eos': False, 'phonon': False, 'insertion_electrodes': False, 'substrates': False}",,,,,,
mp-cjkhx,PbS,-0.5894346987499971,0.19461560500000002,False,0.960499999999999,0.000598,8,6.299240134367304,252.2900358107746,-4.5144570900000005,,False,Amm2,38,Orthorhombic,mm2,NM,icsd-183254,"{'materials': True, 'thermo': True, 'xas': True, 'grain_boundaries': False, 'chemenv': True, 'electronic_structure': True, 'absorption': False, 'bandstructure': True, 'dos': True, 'magnetism': True, 'elasticity': False, 'dielectric': False, 'piezoelectric': False, 'surface_properties': False, 'oxi_states': True, 'provenance': True, 'charge_density': True, 'eos': False, 'phonon': False, 'insertion_electrodes': False, 'substrates': False}",,,,,,
mp-cjkyx,PbS,-0.6202745924999981,0.163775711249999,False,0.49100000000000005,0.0023703,8,6.156550503738952,258.1373316299497,-4.54529698375,,False,Amm2,38,Orthorhombic,mm2,NM,"icsd-183253,icsd-183252","{'materials': True, 'thermo': True, 'xas': True, 'grain_boundaries': False, 'chemenv': True, 'electronic_structure': True, 'absorption': False, 'bandstructure': True, 'dos': True, 'magnetism': True, 'elasticity': False, 'dielectric': False, 'piezoelectric': False, 'surface_properties': False, 'oxi_states': True, 'provenance': True, 'charge_density': True, 'eos': False, 'phonon': False, 'insertion_electrodes': False, 'substrates': False}",,,,,,
mp-bejm,PbS,-0.7255920062499981,0.05845829749999901,False,1.6958000000000002,0.0,4,3.953725406981021,200.97950103895823,-4.6506143975,135.66876949666667,False,Aem2,39,Orthorhombic,mm2,NM,icsd-68701,"{'materials': True, 'thermo': True, 'xas': True, 'grain_boundaries': False, 'chemenv': True, 'electronic_structure': True, 'absorption': False, 'bandstructure': True, 'dos': True, 'magnetism': True, 'elasticity': False, 'dielectric': True, 'piezoelectric': True, 'surface_properties': False, 'oxi_states': True, 'provenance': True, 'charge_density': True, 'eos': False, 'phonon': False, 'insertion_electrodes': False, 'substrates': True}",,,,,,
mp-bfyjg,PbS,-0.725576376249998,0.058473927499999,False,1.6721,0.0,4,2.009223220714416,395.4850567860534,-4.6505987675,,False,C2,5,Monoclinic,2,NM,icsd-68712,"{'materials': True, 'thermo': True, 'xas': False, 'grain_boundaries': False, 'chemenv': False, 'electronic_structure': True, 'absorption': False, 'bandstructure': True, 'dos': True, 'magnetism': True, 'elasticity': False, 'dielectric': False, 'piezoelectric': False, 'surface_properties': False, 'oxi_states': True, 'provenance': True, 'charge_density': True, 'eos': False, 'phonon': False, 'insertion_electrodes': False, 'substrates': True}",,,,,,
mp-cjjku,PbS,-0.753089343749999,0.030960959999998,False,1.217699999999999,0.0,8,7.31541183498853,217.2448462134583,-4.678111735000002,,False,Pnma,62,Orthorhombic,mmm,NM,"icsd-648438,icsd-648451","{'materials': True, 'thermo': True, 'xas': True, 'grain_boundaries': False, 'chemenv': True, 'electronic_structure': True, 'absorption': False, 'bandstructure': True, 'dos': True, 'magnetism': True, 'elasticity': False, 'dielectric': False, 'piezoelectric': False, 'surface_properties': False, 'oxi_states': True, 'provenance': True, 'charge_density': True, 'eos': False, 'phonon': False, 'insertion_electrodes': False, 'substrates': False}",,,,,,
mp-ckclz,PbS,-0.7664949749999981,0.017555328749999002,False,0.660899999999999,2.09e-05,8,7.1485116885718,222.31697845872986,-4.69151736625,,False,Pnma,62,Orthorhombic,mmm,NM,icsd-183241,"{'materials': True, 'thermo': True, 'xas': True, 'grain_boundaries': False, 'chemenv': True, 'electronic_structure': True, 'absorption': False, 'bandstructure': True, 'dos': True, 'magnetism': True, 'elasticity': False, 'dielectric': False, 'piezoelectric': False, 'surface_properties': False, 'oxi_states': True, 'provenance': True, 'charge_density': True, 'eos': False, 'phonon': False, 'insertion_electrodes': False, 'substrates': False}",,,,,,
mp-cfych,PbS,-0.745545128749996,0.038505175,False,1.304,0.0,4,7.4503918652068535,106.65449199403099,-4.670567519999999,,False,Cmcm,63,Orthorhombic,mmm,NM,"icsd-250761,icsd-183240,icsd-648448","{'materials': True, 'thermo': True, 'xas': False, 'grain_boundaries': False, 'chemenv': True, 'electronic_structure': True, 'absorption': False, 'bandstructure': True, 'dos': True, 'magnetism': True, 'elasticity': False, 'dielectric': False, 'piezoelectric': False, 'surface_properties': False, 'oxi_states': True, 'provenance': True, 'charge_density': True, 'eos': False, 'phonon': False, 'insertion_electrodes': False, 'substrates': True}",,,,,,
mp-bftat,PbS,-0.7259341649999991,0.058116138749998006,False,2.0962,0.0,8,2.74490739882466,578.9760047135613,-4.6509565562500015,125.58127254666665,False,Cmce,64,Orthorhombic,mmm,NM,,"{'materials': True, 'thermo': True, 'xas': True, 'grain_boundaries': False, 'chemenv': False, 'electronic_structure': True, 'absorption': False, 'bandstructure': True, 'dos': True, 'magnetism': True, 'elasticity': False, 'dielectric': True, 'piezoelectric': False, 'surface_properties': False, 'oxi_states': True, 'provenance': True, 'charge_density': True, 'eos': False, 'phonon': False, 'insertion_electrodes': False, 'substrates': True}",,,,,,
mp-cpnbt,Pb3S,-0.063598849374997,0.32842630250000104,False,0.0,0.0021568,4,9.572210790127388,113.39452220260226,-3.88243358,,False,Pm-3m,221,Cubic,m-3m,NM,,"{'materials': True, 'thermo': True, 'xas': False, 'grain_boundaries': False, 'chemenv': True, 'electronic_structure': True, 'absorption': False, 'bandstructure': True, 'dos': True, 'magnetism': True, 'elasticity': False, 'dielectric': False, 'piezoelectric': False, 'surface_properties': False, 'oxi_states': True, 'provenance': True, 'charge_density': True, 'eos': False, 'phonon': False, 'insertion_electrodes': False, 'substrates': False}",,,,,,
mp-cipfk,BiS,-0.05155433848958001,0.293958552500001,False,0.0,0.0126345,4,4.588338956019509,174.47067767262908,-33.31970982458333,,False,C2/m,12,Monoclinic,2/m,NM,icsd-41085,"{'materials': True, 'thermo': True, 'xas': True, 'grain_boundaries': False, 'chemenv': True, 'electronic_structure': True, 'absorption': False, 'bandstructure': True, 'dos': True, 'magnetism': True, 'elasticity': False, 'dielectric': False, 'piezoelectric': False, 'surface_properties': False, 'oxi_states': True, 'provenance': True, 'charge_density': True, 'eos': False, 'phonon': False, 'insertion_electrodes': False, 'substrates': False}",,,,,,
mp-cdhkb,BiS2,-0.32704707937500105,0.018465811614589,False,1.066599999999999,0.0,12,6.082212582499074,298.2536256622672,-25.183829812499997,53.20898872333334,False,C2/m,12,Monoclinic,2/m,NM,icsd-194722,"{'materials': True, 'thermo': True, 'xas': True, 'grain_boundaries': False, 'chemenv': True, 'electronic_structure': True, 'absorption': False, 'bandstructure': True, 'dos': True, 'magnetism': True, 'elasticity': True, 'dielectric': True, 'piezoelectric': False, 'surface_properties': False, 'oxi_states': True, 'provenance': True, 'charge_density': True, 'eos': False, 'phonon': False, 'insertion_electrodes': False, 'substrates': True}",,,,,,
mp-chhpv,BiS2,0.096299124843743,0.441812015833335,False,0.0,1.9999284,6,4.023816010342321,225.41313396492538,-24.760483608281252,,True,I-42d,122,Tetragonal,-42m,FM,,"{'materials': True, 'thermo': True, 'xas': True, 'grain_boundaries': False, 'chemenv': True, 'electronic_structure': True, 'absorption': False, 'bandstructure': True, 'dos': True, 'magnetism': True, 'elasticity': True, 'dielectric': False, 'piezoelectric': False, 'surface_properties': False, 'oxi_states': True, 'provenance': True, 'charge_density': True, 'eos': False, 'phonon': False, 'insertion_electrodes': False, 'substrates': True}",,,,,,
mp-cpisn,BiS3,0.20513123660156202,0.464265904843749,False,0.0,0.0008286999999990001,8,5.9571886540749865,170.13249144582247,-20.445965120039062,,False,P6_3/mmc,194,Hexagonal,6/mmm,NM,,"{'materials': True, 'thermo': True, 'xas': False, 'grain_boundaries': False, 'chemenv': True, 'electronic_structure': True, 'absorption': False, 'bandstructure': True, 'dos': True, 'magnetism': True, 'elasticity': False, 'dielectric': False, 'piezoelectric': False, 'surface_properties': False, 'oxi_states': True, 'provenance': True, 'charge_density': True, 'eos': False, 'phonon': False, 'insertion_electrodes': False, 'substrates': False}",,,,,,
mp-bqkz,BiS,-0.117478978489572,0.22803391250000202,False,0.0,0.6012533,20,3.903947786278729,1025.2834449554955,-33.385634464583326,,False,Amm2,38,Orthorhombic,mm2,NM,icsd-67650,"{'materials': True, 'thermo': True, 'xas': True, 'grain_boundaries': False, 'chemenv': True, 'electronic_structure': True, 'absorption': False, 'bandstructure': True, 'dos': True, 'magnetism': True, 'elasticity': False, 'dielectric': False, 'piezoelectric': False, 'surface_properties': False, 'oxi_states': True, 'provenance': True, 'charge_density': True, 'eos': False, 'phonon': False, 'insertion_electrodes': False, 'substrates': True}",,,,,,
mp-bhcmv,BiS,-0.11555599848957801,0.229956892500005,False,0.0,0.0074198,24,4.014344054723682,1196.5052264612877,-33.38371148458332,,False,Fmm2,42,Orthorhombic,mm2,NM,icsd-79515,"{'materials': True, 'thermo': True, 'xas': True, 'grain_boundaries': False, 'chemenv': True, 'electronic_structure': True, 'absorption': False, 'bandstructure': False, 'dos': False, 'magnetism': True, 'elasticity': False, 'dielectric': False, 'piezoelectric': False, 'surface_properties': False, 'oxi_states': True, 'provenance': True, 'charge_density': False, 'eos': False, 'phonon': False, 'insertion_electrodes': False, 'substrates': True}",,,,,,
mp-cktuy,Bi2S,-0.062403191493056,0.16793873583333102,False,0.0,2e-07,12,8.29156998824427,360.50370336976675,-41.74193143055555,,False,P2_1/c,14,Monoclinic,2/m,NM,icsd-109278,"{'materials': True, 'thermo': True, 'xas': True, 'grain_boundaries': False, 'chemenv': True, 'electronic_structure': True, 'absorption': False, 'bandstructure': False, 'dos': True, 'magnetism': True, 'elasticity': False, 'dielectric': False, 'piezoelectric': False, 'surface_properties': False, 'oxi_states': True, 'provenance': True, 'charge_density': True, 'eos': False, 'phonon': False, 'insertion_electrodes': False, 'substrates': False}",,,,,,
mp-bhvc,Bi2S3,-0.414615469187504,0.0,True,1.361799999999999,0.0,20,6.602026285137526,517.2810621133061,-28.6359473035,63.63719022,False,Pnma,62,Orthorhombic,mmm,NM,"icsd-153951,icsd-153950,icsd-153946,icsd-171864,icsd-89325,icsd-617019,icsd-171865,icsd-89323,icsd-171863,icsd-171570,icsd-89324,icsd-617018,icsd-604448,icsd-617021,icsd-201066,icsd-153947,icsd-153952,icsd-153948,icsd-30775,icsd-617027,icsd-153949,icsd-617028,icsd-153953","{'materials': True, 'thermo': True, 'xas': True, 'grain_boundaries': False, 'chemenv': True, 'electronic_structure': True, 'absorption': False, 'bandstructure': True, 'dos': True, 'magnetism': True, 'elasticity': False, 'dielectric': True, 'piezoelectric': False, 'surface_properties': False, 'oxi_states': True, 'provenance': True, 'charge_density': True, 'eos': False, 'phonon': False, 'insertion_electrodes': False, 'substrates': True}",,,,,,