material_id,formula_pretty,formation_energy_per_atom,energy_above_hull,is_stable,band_gap,total_magnetization,nsites,density,volume,energy_per_atom,e_total,is_magnetic,space_group_symbol,space_group_number,crystal_system,point_group,ordering,icsd_ids,has_props,lattice_a,lattice_b,lattice_c,lattice_alpha,lattice_beta,lattice_gamma
mp-bfybm,ZnS,-0.9621595995312511,0.000538750089285,False,2.0338,0.0,16,4.14165224561266,312.6469831439459,-9.434479515625,9.243667669983006,False,P6_3mc,186,Hexagonal,6mm,NM,icsd-15478,"{'materials': True, 'thermo': True, 'xas': True, 'grain_boundaries': False, 'chemenv': True, 'electronic_structure': True, 'absorption': False, 'bandstructure': True, 'dos': True, 'magnetism': True, 'elasticity': False, 'dielectric': True, 'piezoelectric': True, 'surface_properties': False, 'oxi_states': True, 'provenance': True, 'charge_density': True, 'eos': False, 'phonon': False, 'insertion_electrodes': False, 'substrates': True}",,,,,,
mp-oso,ZnS,-0.9620232339062491,0.0006751157142850001,False,2.0368,0.0,12,4.140241530894832,234.5651340917577,-9.43434315,9.227581793315062,False,P6_3mc,186,Hexagonal,6mm,NM,"icsd-42798,icsd-42833,icsd-43392","{'materials': True, 'thermo': True, 'xas': True, 'grain_boundaries': False, 'chemenv': True, 'electronic_structure': True, 'absorption': False, 'bandstructure': True, 'dos': True, 'magnetism': True, 'elasticity': True, 'dielectric': True, 'piezoelectric': True, 'surface_properties': False, 'oxi_states': True, 'provenance': True, 'charge_density': True, 'eos': False, 'phonon': False, 'insertion_electrodes': False, 'substrates': True}",,,,,,
mp-ckthf,ZnS2,-0.496377133541666,0.14542176620535702,False,1.4156,0.0,12,4.094111983860375,210.15992820545503,-8.82260282,18.787555459999993,False,Pa-3,205,Cubic,m-3,NM,icsd-651447,"{'materials': True, 'thermo': True, 'xas': False, 'grain_boundaries': False, 'chemenv': True, 'electronic_structure': True, 'absorption': False, 'bandstructure': True, 'dos': True, 'magnetism': True, 'elasticity': False, 'dielectric': True, 'piezoelectric': False, 'surface_properties': False, 'oxi_states': True, 'provenance': True, 'charge_density': True, 'eos': False, 'phonon': False, 'insertion_electrodes': False, 'substrates': False}",,,,,,
mp-pvj,ZnS,-0.9625521039062511,0.00014624571428500002,False,2.0192,0.0,2,4.140649724985354,39.09033502667045,-9.43487202,9.364281006666658,False,F-43m,216,Cubic,-43m,NM,"icsd-651451,icsd-67790,icsd-651454,icsd-651455,icsd-181667,icsd-41985,icsd-601048,icsd-651458,icsd-168377,icsd-52223,icsd-53943,icsd-60378,icsd-108733,icsd-651457,icsd-187167,icsd-77082,icsd-651445,icsd-291065,icsd-181741,icsd-169184,icsd-291064,icsd-162754,icsd-248503,icsd-186885,icsd-77090","{'materials': True, 'thermo': True, 'xas': True, 'grain_boundaries': False, 'chemenv': True, 'electronic_structure': True, 'absorption': False, 'bandstructure': True, 'dos': True, 'magnetism': True, 'elasticity': True, 'dielectric': True, 'piezoelectric': True, 'surface_properties': False, 'oxi_states': True, 'provenance': True, 'charge_density': True, 'eos': True, 'phonon': True, 'insertion_electrodes': False, 'substrates': True}",,,,,,
mp-bhju,YS,-2.035623006406251,0.206838924999999,False,0.0,0.0008703999999990001,4,2.582487218430344,155.56849297159587,-16.2094421,,False,I4/mmm,139,Tetragonal,4/mmm,NM,,"{'materials': True, 'thermo': True, 'xas': True, 'grain_boundaries': False, 'chemenv': True, 'electronic_structure': True, 'absorption': False, 'bandstructure': True, 'dos': True, 'magnetism': True, 'elasticity': False, 'dielectric': False, 'piezoelectric': False, 'surface_properties': False, 'oxi_states': True, 'provenance': True, 'charge_density': True, 'eos': False, 'phonon': False, 'insertion_electrodes': False, 'substrates': True}",,,,,,
mp-cha,YS,-2.24246193140625,0.0,True,0.0,4.1e-06,2,4.764253673957937,42.1633347197335,-16.416281025,,False,Fm-3m,225,Cubic,m-3m,NM,"icsd-183011,icsd-52215,icsd-651401,icsd-183012,icsd-44973,icsd-651405,icsd-183013,icsd-651394","{'materials': True, 'thermo': True, 'xas': True, 'grain_boundaries': False, 'chemenv': True, 'electronic_structure': True, 'absorption': False, 'bandstructure': True, 'dos': True, 'magnetism': True, 'elasticity': True, 'dielectric': False, 'piezoelectric': False, 'surface_properties': False, 'oxi_states': True, 'provenance': True, 'charge_density': True, 'eos': False, 'phonon': False, 'insertion_electrodes': False, 'substrates': True}",,,,,,
mp-yae,YS2,-0.39608625359375005,1.5894532219791682,False,0.0,0.5265556,6,4.235855750758332,119.98614800319528,-12.52331139171875,,False,Fd-3m,227,Cubic,m-3m,NM,icsd-52216,"{'materials': True, 'thermo': True, 'xas': True, 'grain_boundaries': False, 'chemenv': True, 'electronic_structure': True, 'absorption': False, 'bandstructure': True, 'dos': True, 'magnetism': True, 'elasticity': False, 'dielectric': False, 'piezoelectric': False, 'surface_properties': False, 'oxi_states': True, 'provenance': True, 'charge_density': True, 'eos': False, 'phonon': False, 'insertion_electrodes': False, 'substrates': True}",,,,,,
mp-beusv,Y2S3,-2.382647370687501,0.0,True,1.5992000000000002,0.0,30,3.8050672458027313,717.4624790592753,-15.328510091,,False,P2_1/m,11,Monoclinic,2/m,NM,"icsd-67502,icsd-651408,icsd-651399","{'materials': True, 'thermo': True, 'xas': True, 'grain_boundaries': False, 'chemenv': True, 'electronic_structure': True, 'absorption': False, 'bandstructure': True, 'dos': True, 'magnetism': True, 'elasticity': False, 'dielectric': False, 'piezoelectric': False, 'surface_properties': False, 'oxi_states': True, 'provenance': True, 'charge_density': True, 'eos': False, 'phonon': False, 'insertion_electrodes': False, 'substrates': True}",,,,,,
mp-bwrb,Y2S3,-2.346931513937499,0.035715856750000004,False,1.901899999999999,0.0006383,40,4.179987681547378,870.8137239135814,-15.29279423425,,False,I-42d,122,Tetragonal,-42m,NM,,"{'materials': True, 'thermo': True, 'xas': True, 'grain_boundaries': False, 'chemenv': True, 'electronic_structure': True, 'absorption': False, 'bandstructure': True, 'dos': True, 'magnetism': True, 'elasticity': False, 'dielectric': False, 'piezoelectric': False, 'surface_properties': False, 'oxi_states': True, 'provenance': True, 'charge_density': True, 'eos': False, 'phonon': False, 'insertion_electrodes': False, 'substrates': True}",,,,,,
mp-cpqjd,Y2S3,-2.3745815576875,0.008065812999999,False,0.6665000000000001,0.0,20,4.210834171069141,432.2172865284038,-15.320444278,,False,Pnma,62,Orthorhombic,mmm,NM,icsd-651407,"{'materials': True, 'thermo': True, 'xas': True, 'grain_boundaries': False, 'chemenv': True, 'electronic_structure': True, 'absorption': False, 'bandstructure': True, 'dos': True, 'magnetism': True, 'elasticity': False, 'dielectric': False, 'piezoelectric': False, 'surface_properties': False, 'oxi_states': True, 'provenance': True, 'charge_density': True, 'eos': False, 'phonon': False, 'insertion_electrodes': False, 'substrates': False}",,,,,,
mp-xes,Y5S7,-2.3785692108072922,0.0,True,0.0,1e-07,12,4.043469778164344,274.73297514527644,-15.529091326666666,,False,C2/m,12,Monoclinic,2/m,NM,"icsd-651397,icsd-43620","{'materials': True, 'thermo': True, 'xas': True, 'grain_boundaries': False, 'chemenv': True, 'electronic_structure': True, 'absorption': False, 'bandstructure': True, 'dos': True, 'magnetism': True, 'elasticity': False, 'dielectric': False, 'piezoelectric': False, 'surface_properties': False, 'oxi_states': True, 'provenance': True, 'charge_density': True, 'eos': False, 'phonon': False, 'insertion_electrodes': False, 'substrates': True}",,,,,,
mp-orp,ZrS3,-1.574733515624998,0.0,True,1.113299999999999,0.0,8,3.608861478892194,172.4735477620155,-6.8147069575,9.903677046666667,False,P2_1/m,11,Monoclinic,2/m,NM,"icsd-604573,icsd-42073,icsd-651463,icsd-651485","{'materials': True, 'thermo': True, 'xas': True, 'grain_boundaries': False, 'chemenv': True, 'electronic_structure': True, 'absorption': False, 'bandstructure': True, 'dos': True, 'magnetism': True, 'elasticity': True, 'dielectric': True, 'piezoelectric': False, 'surface_properties': False, 'oxi_states': True, 'provenance': True, 'charge_density': True, 'eos': False, 'phonon': False, 'insertion_electrodes': False, 'substrates': True}",,,,,,
mp-lqh,ZrS,-1.684560418749999,0.0,True,0.0,4.999999999999999e-06,4,5.681257573835984,72.07073374911826,-8.02710959,,False,P4/nmm,129,Tetragonal,4/mmm,NM,icsd-24754,"{'materials': True, 'thermo': True, 'xas': True, 'grain_boundaries': False, 'chemenv': True, 'electronic_structure': True, 'absorption': False, 'bandstructure': True, 'dos': True, 'magnetism': True, 'elasticity': True, 'dielectric': False, 'piezoelectric': False, 'surface_properties': False, 'oxi_states': True, 'provenance': True, 'charge_density': True, 'eos': False, 'phonon': False, 'insertion_electrodes': False, 'substrates': True}",,,,,,
mp-btq,ZrS2,-1.8483086849999992,0.0,True,1.0418,0.0,3,3.618665179720018,71.28910063255313,-7.45580737,35.90011770284961,False,P-3m1,164,Trigonal,-3m,NM,"icsd-651482,icsd-604434,icsd-601166,icsd-602309,icsd-76037,icsd-56012,icsd-651478,icsd-182675,icsd-651465","{'materials': True, 'thermo': True, 'xas': True, 'grain_boundaries': False, 'chemenv': True, 'electronic_structure': True, 'absorption': False, 'bandstructure': True, 'dos': True, 'magnetism': True, 'elasticity': True, 'dielectric': True, 'piezoelectric': False, 'surface_properties': False, 'oxi_states': True, 'provenance': True, 'charge_density': True, 'eos': False, 'phonon': False, 'insertion_electrodes': False, 'substrates': True}",,,,,,
mp-cwb,ZrS,-1.593786353749999,0.090774064999999,False,0.0,0.000350999999999,2,5.668866808697857,36.114131428865434,-7.9363355250000005,,False,Fm-3m,225,Cubic,m-3m,NM,"icsd-659985,icsd-108732,icsd-52224","{'materials': True, 'thermo': True, 'xas': True, 'grain_boundaries': False, 'chemenv': True, 'electronic_structure': True, 'absorption': False, 'bandstructure': True, 'dos': True, 'magnetism': True, 'elasticity': True, 'dielectric': False, 'piezoelectric': False, 'surface_properties': False, 'oxi_states': True, 'provenance': True, 'charge_density': True, 'eos': False, 'phonon': False, 'insertion_electrodes': False, 'substrates': True}",,,,,,
mp-cqdgw,Zr2S,-1.264283809166663,0.0,True,0.0,2e-07,36,6.357514469225585,672.3518479138387,-8.341883466666664,,False,Pnnm,58,Orthorhombic,mmm,NM,icsd-651471,"{'materials': True, 'thermo': True, 'xas': True, 'grain_boundaries': False, 'chemenv': True, 'electronic_structure': True, 'absorption': False, 'bandstructure': False, 'dos': False, 'magnetism': True, 'elasticity': False, 'dielectric': False, 'piezoelectric': False, 'surface_properties': False, 'oxi_states': True, 'provenance': True, 'charge_density': True, 'eos': False, 'phonon': False, 'insertion_electrodes': False, 'substrates': False}",,,,,,
mp-bmyxb,Zr3S4,-1.177445720857142,0.683334865392857,False,0.0,3.6627696,35,4.798360863709186,695.470606602882,-7.204973255142857,,True,C2/m,12,Monoclinic,2/m,FM,,"{'materials': True, 'thermo': True, 'xas': False, 'grain_boundaries': False, 'chemenv': True, 'electronic_structure': True, 'absorption': False, 'bandstructure': False, 'dos': False, 'magnetism': True, 'elasticity': False, 'dielectric': False, 'piezoelectric': False, 'surface_properties': False, 'oxi_states': True, 'provenance': True, 'charge_density': True, 'eos': False, 'phonon': False, 'insertion_electrodes': False, 'substrates': True}",,,,,,
mp-crdyx,Zr3S2,-1.258442184999999,0.17395226800000002,False,0.0,8.850000000000002e-05,5,5.510825105564115,101.7875557707784,-8.042021647999999,,False,R32,155,Trigonal,32,NM,,"{'materials': True, 'thermo': True, 'xas': False, 'grain_boundaries': False, 'chemenv': True, 'electronic_structure': True, 'absorption': False, 'bandstructure': True, 'dos': True, 'magnetism': True, 'elasticity': False, 'dielectric': False, 'piezoelectric': False, 'surface_properties': False, 'oxi_states': True, 'provenance': True, 'charge_density': True, 'eos': False, 'phonon': False, 'insertion_electrodes': False, 'substrates': False}",,,,,,
mp-cxrct,Zr3S4,-1.310823269464286,0.549957316785713,False,0.0,0.047722299999999,56,4.766736650354742,1120.1353665166314,-7.338350803750001,,False,P-1,2,Triclinic,-1,NM,,"{'materials': True, 'thermo': True, 'xas': False, 'grain_boundaries': False, 'chemenv': True, 'electronic_structure': True, 'absorption': False, 'bandstructure': False, 'dos': False, 'magnetism': True, 'elasticity': False, 'dielectric': False, 'piezoelectric': False, 'surface_properties': False, 'oxi_states': True, 'provenance': True, 'charge_density': False, 'eos': False, 'phonon': False, 'insertion_electrodes': False, 'substrates': False}",,,,,,
mp-bmyyn,Zr3S4,-1.86078058625,0.0,True,0.0,1e-07,56,4.81220661073748,1109.55134241734,-7.888308120535714,,False,P-1,2,Triclinic,-1,NM,,"{'materials': True, 'thermo': True, 'xas': False, 'grain_boundaries': False, 'chemenv': True, 'electronic_structure': True, 'absorption': False, 'bandstructure': False, 'dos': False, 'magnetism': True, 'elasticity': False, 'dielectric': False, 'piezoelectric': False, 'surface_properties': False, 'oxi_states': True, 'provenance': True, 'charge_density': True, 'eos': False, 'phonon': False, 'insertion_electrodes': False, 'substrates': True}",,,,,,
mp-cppkn,Zr3S,-0.33865878937500005,0.615779533374999,False,0.0,0.0003905,4,6.513568106794313,77.9431832570406,-7.78378369,,False,Pm-3m,221,Cubic,m-3m,NM,,"{'materials': True, 'thermo': True, 'xas': False, 'grain_boundaries': False, 'chemenv': True, 'electronic_structure': True, 'absorption': False, 'bandstructure': True, 'dos': True, 'magnetism': True, 'elasticity': False, 'dielectric': False, 'piezoelectric': False, 'surface_properties': False, 'oxi_states': True, 'provenance': True, 'charge_density': True, 'eos': False, 'phonon': False, 'insertion_electrodes': False, 'substrates': False}",,,,,,
mp-ckuwq,Zr3S4,-1.573232015714286,0.28754857053571303,False,0.0,0.004195799999999,14,4.261034140165427,313.26845369549636,-7.60075955,,False,Fd-3m,227,Cubic,m-3m,NM,icsd-651475,"{'materials': True, 'thermo': True, 'xas': False, 'grain_boundaries': False, 'chemenv': True, 'electronic_structure': True, 'absorption': False, 'bandstructure': True, 'dos': True, 'magnetism': True, 'elasticity': False, 'dielectric': False, 'piezoelectric': False, 'surface_properties': False, 'oxi_states': True, 'provenance': True, 'charge_density': True, 'eos': False, 'phonon': False, 'insertion_electrodes': False, 'substrates': False}",,,,,,
mp-credr,Zr3S4,-1.851009707142858,0.009770879107141,False,0.0,1e-07,7,4.848744053125516,137.6487974626022,-7.878537241428573,,False,Cmmm,65,Orthorhombic,mmm,NM,,"{'materials': True, 'thermo': True, 'xas': False, 'grain_boundaries': False, 'chemenv': True, 'electronic_structure': True, 'absorption': False, 'bandstructure': True, 'dos': True, 'magnetism': True, 'elasticity': False, 'dielectric': False, 'piezoelectric': False, 'surface_properties': False, 'oxi_states': True, 'provenance': True, 'charge_density': True, 'eos': False, 'phonon': False, 'insertion_electrodes': False, 'substrates': False}",,,,,,
mp-crdxf,Zr5S8,-1.762313219999999,0.092711104134615,False,0.0,0.227895,13,3.983359927701746,297.0774878243512,-7.595981285384616,,False,F-43m,216,Cubic,-43m,NM,,"{'materials': True, 'thermo': True, 'xas': False, 'grain_boundaries': False, 'chemenv': True, 'electronic_structure': True, 'absorption': False, 'bandstructure': False, 'dos': True, 'magnetism': True, 'elasticity': False, 'dielectric': False, 'piezoelectric': False, 'surface_properties': False, 'oxi_states': True, 'provenance': True, 'charge_density': True, 'eos': False, 'phonon': False, 'insertion_electrodes': False, 'substrates': False}",,,,,,
mp-bofv,Zr9S2,-0.7009283793181821,0.0,True,0.0,0.2874461,44,6.32391132544513,929.6901471282192,-8.44675575159091,,False,I4_1/amd,141,Tetragonal,4/mmm,NM,icsd-2774,"{'materials': True, 'thermo': True, 'xas': True, 'grain_boundaries': False, 'chemenv': True, 'electronic_structure': True, 'absorption': False, 'bandstructure': True, 'dos': True, 'magnetism': True, 'elasticity': False, 'dielectric': False, 'piezoelectric': False, 'surface_properties': False, 'oxi_states': True, 'provenance': True, 'charge_density': True, 'eos': False, 'phonon': False, 'insertion_electrodes': False, 'substrates': True}",,,,,,
mp-cpybo,Zr21S8,-0.954136957931035,0.09646030887930801,False,0.0,3.399999999999998e-06,29,6.311453086111339,571.5106749891933,-8.285202300344828,,False,I4/m,87,Tetragonal,4/m,NM,icsd-651473,"{'materials': True, 'thermo': True, 'xas': False, 'grain_boundaries': False, 'chemenv': True, 'electronic_structure': True, 'absorption': False, 'bandstructure': False, 'dos': True, 'magnetism': True, 'elasticity': False, 'dielectric': False, 'piezoelectric': False, 'surface_properties': False, 'oxi_states': True, 'provenance': True, 'charge_density': True, 'eos': False, 'phonon': False, 'insertion_electrodes': False, 'substrates': False}",,,,,,
mp-bminp,Zr23S32,-1.834789135636363,0.024630879568181004,False,0.0,0.0279221,55,4.661589993811543,1112.905531376423,-7.816495340909091,,False,P1,1,Triclinic,1,NM,,"{'materials': True, 'thermo': True, 'xas': True, 'grain_boundaries': False, 'chemenv': True, 'electronic_structure': True, 'absorption': False, 'bandstructure': False, 'dos': False, 'magnetism': True, 'elasticity': False, 'dielectric': False, 'piezoelectric': False, 'surface_properties': False, 'oxi_states': True, 'provenance': True, 'charge_density': True, 'eos': False, 'phonon': False, 'insertion_electrodes': False, 'substrates': True}",,,,,,
mp-ckqln,Zr40S27,-1.292167270037313,0.14775452522387902,False,0.0,11.7957607,67,5.474755550886056,1369.3507522635778,-8.062581649701492,,True,P3m1,156,Trigonal,3m,FM,,"{'materials': True, 'thermo': True, 'xas': False, 'grain_boundaries': False, 'chemenv': True, 'electronic_structure': True, 'absorption': False, 'bandstructure': False, 'dos': False, 'magnetism': True, 'elasticity': False, 'dielectric': False, 'piezoelectric': False, 'surface_properties': False, 'oxi_states': True, 'provenance': True, 'charge_density': False, 'eos': False, 'phonon': False, 'insertion_electrodes': False, 'substrates': False}",,,,,,
mp-cggxz,Zr63S128,-1.8074487296335071,0.029401309528794002,False,0.0,2.0737017,191,3.459885382118344,4728.101047075041,-7.399553687172776,,True,P-3m1,164,Trigonal,-3m,FM,,"{'materials': True, 'thermo': True, 'xas': False, 'grain_boundaries': False, 'chemenv': True, 'electronic_structure': True, 'absorption': False, 'bandstructure': False, 'dos': False, 'magnetism': True, 'elasticity': False, 'dielectric': False, 'piezoelectric': False, 'surface_properties': False, 'oxi_states': True, 'provenance': True, 'charge_density': False, 'eos': False, 'phonon': False, 'insertion_electrodes': False, 'substrates': True}",,,,,,
mp-ckkrp,Zr64S127,-1.8209770612172762,0.027560166475785002,False,0.1044,0.110798399999999,191,3.245944991099369,5069.994585157946,-7.436172609947643,,False,P3m1,156,Trigonal,3m,NM,,"{'materials': True, 'thermo': True, 'xas': False, 'grain_boundaries': False, 'chemenv': True, 'electronic_structure': True, 'absorption': False, 'bandstructure': False, 'dos': False, 'magnetism': True, 'elasticity': False, 'dielectric': False, 'piezoelectric': False, 'surface_properties': False, 'oxi_states': True, 'provenance': True, 'charge_density': False, 'eos': False, 'phonon': False, 'insertion_electrodes': False, 'substrates': False}",,,,,,