material_id,formula_pretty,formation_energy_per_atom,energy_above_hull,is_stable,band_gap,total_magnetization,nsites,density,volume,energy_per_atom,e_total,is_magnetic,space_group_symbol,space_group_number,crystal_system,point_group,ordering,icsd_ids,has_props,lattice_a,lattice_b,lattice_c,lattice_alpha,lattice_beta,lattice_gamma
mp-ckupv,NiS2,-0.531351894999999,0.060174643333334006,False,0.0,0.123276,12,4.353543399386607,187.3903947036562,-5.216329263333333,,False,Pnma,62,Orthorhombic,mmm,NM,icsd-169575,"{'materials': True, 'thermo': True, 'xas': True, 'grain_boundaries': False, 'chemenv': True, 'electronic_structure': True, 'absorption': False, 'bandstructure': False, 'dos': True, 'magnetism': True, 'elasticity': False, 'dielectric': False, 'piezoelectric': False, 'surface_properties': False, 'oxi_states': True, 'provenance': True, 'charge_density': True, 'eos': False, 'phonon': False, 'insertion_electrodes': False, 'substrates': False}",,,,,,
mp-bwiaw,Ni2S,-0.09901549249999801,0.377193551666666,False,0.0,0.013967799999999002,3,7.190907232749256,34.51171659445929,-5.331572516666667,,False,I4/mmm,139,Tetragonal,4/mmm,NM,,"{'materials': True, 'thermo': True, 'xas': False, 'grain_boundaries': False, 'chemenv': True, 'electronic_structure': True, 'absorption': False, 'bandstructure': True, 'dos': True, 'magnetism': True, 'elasticity': False, 'dielectric': False, 'piezoelectric': False, 'surface_properties': False, 'oxi_states': True, 'provenance': True, 'charge_density': True, 'eos': False, 'phonon': False, 'insertion_electrodes': False, 'substrates': True}",,,,,,
mp-cdozp,Ni3S,0.021274810624999002,0.378431593750001,False,0.0,1.0653902,4,7.778838851853417,44.432497279837385,-5.3481771275,,True,I4/mmm,139,Tetragonal,4/mmm,FM,,"{'materials': True, 'thermo': True, 'xas': True, 'grain_boundaries': False, 'chemenv': True, 'electronic_structure': True, 'absorption': False, 'bandstructure': True, 'dos': True, 'magnetism': True, 'elasticity': False, 'dielectric': False, 'piezoelectric': False, 'surface_properties': False, 'oxi_states': True, 'provenance': True, 'charge_density': True, 'eos': False, 'phonon': False, 'insertion_electrodes': False, 'substrates': True}",,,,,,
mp-ny,Ni3S2,-0.5714508529999991,0.0,True,0.0,4e-07,5,6.090749723979862,65.48921551075674,-5.694491946,,False,R32,155,Trigonal,32,NM,"icsd-657413,icsd-180766,icsd-23114,icsd-36338,icsd-657414,icsd-10424,icsd-27521,icsd-654935,icsd-54297,icsd-600665,icsd-73839","{'materials': True, 'thermo': True, 'xas': True, 'grain_boundaries': False, 'chemenv': True, 'electronic_structure': True, 'absorption': False, 'bandstructure': True, 'dos': True, 'magnetism': True, 'elasticity': True, 'dielectric': False, 'piezoelectric': False, 'surface_properties': False, 'oxi_states': True, 'provenance': True, 'charge_density': True, 'eos': False, 'phonon': False, 'insertion_electrodes': False, 'substrates': True}",,,,,,
mp-crkxh,Ni3S2,-0.39339454299999904,0.17805631000000002,False,0.0,0.0012228,5,5.787449618175745,68.92127752492284,-5.516435636,,False,R3m,160,Trigonal,3m,NM,,"{'materials': True, 'thermo': True, 'xas': False, 'grain_boundaries': False, 'chemenv': True, 'electronic_structure': True, 'absorption': False, 'bandstructure': True, 'dos': True, 'magnetism': True, 'elasticity': False, 'dielectric': False, 'piezoelectric': False, 'surface_properties': False, 'oxi_states': True, 'provenance': True, 'charge_density': True, 'eos': False, 'phonon': False, 'insertion_electrodes': False, 'substrates': False}",,,,,,
mp-cdpcj,Ni3S,0.013581580624999002,0.370738363750001,False,0.0,2.956322,8,7.6840432675140615,89.96129357743438,-5.3558703575,,True,P6_3/mmc,194,Hexagonal,6/mmm,FM,,"{'materials': True, 'thermo': True, 'xas': True, 'grain_boundaries': False, 'chemenv': True, 'electronic_structure': True, 'absorption': False, 'bandstructure': True, 'dos': True, 'magnetism': True, 'elasticity': False, 'dielectric': False, 'piezoelectric': False, 'surface_properties': False, 'oxi_states': True, 'provenance': True, 'charge_density': True, 'eos': False, 'phonon': False, 'insertion_electrodes': False, 'substrates': True}",,,,,,
mp-bok,Ni3S4,-0.658521378571426,0.0,True,0.0,0.00011549999999900002,14,4.887384319718059,206.8054233418708,-5.499950077142857,,False,Fd-3m,227,Cubic,m-3m,NM,"icsd-36271,icsd-601828,icsd-57435","{'materials': True, 'thermo': True, 'xas': True, 'grain_boundaries': False, 'chemenv': True, 'electronic_structure': True, 'absorption': False, 'bandstructure': True, 'dos': True, 'magnetism': True, 'elasticity': True, 'dielectric': False, 'piezoelectric': False, 'surface_properties': False, 'oxi_states': True, 'provenance': True, 'charge_density': True, 'eos': False, 'phonon': False, 'insertion_electrodes': False, 'substrates': True}",,,,,,
mp-bwjnq,Ni3S2,-0.437429305999999,0.13402154700000002,False,0.0,0.0002478,10,6.533838826018222,122.09619242747047,-5.560470399,,False,Cmcm,63,Orthorhombic,mmm,NM,icsd-180767,"{'materials': True, 'thermo': True, 'xas': True, 'grain_boundaries': False, 'chemenv': True, 'electronic_structure': True, 'absorption': False, 'bandstructure': True, 'dos': True, 'magnetism': True, 'elasticity': False, 'dielectric': False, 'piezoelectric': False, 'surface_properties': False, 'oxi_states': True, 'provenance': True, 'charge_density': True, 'eos': False, 'phonon': False, 'insertion_electrodes': False, 'substrates': True}",,,,,,
mp-cqked,Ni9S8,-0.508689904705881,0.10229054588235101,False,0.0,0.0295407,68,5.163521011747226,1009.4860706589867,-5.515772952941177,,False,I-42d,122,Tetragonal,-42m,NM,icsd-164879,"{'materials': True, 'thermo': True, 'xas': False, 'grain_boundaries': False, 'chemenv': True, 'electronic_structure': True, 'absorption': False, 'bandstructure': False, 'dos': False, 'magnetism': True, 'elasticity': False, 'dielectric': False, 'piezoelectric': False, 'surface_properties': False, 'oxi_states': True, 'provenance': True, 'charge_density': True, 'eos': False, 'phonon': False, 'insertion_electrodes': False, 'substrates': False}",,,,,,
mp-brrib,Ni9S10,-0.54823004605263,0.089023022631577,False,0.0,0.0270951,19,5.419284329152718,260.11109935431296,-5.463767269473685,,False,P-1,2,Triclinic,-1,NM,,"{'materials': True, 'thermo': True, 'xas': True, 'grain_boundaries': False, 'chemenv': True, 'electronic_structure': True, 'absorption': False, 'bandstructure': True, 'dos': True, 'magnetism': True, 'elasticity': False, 'dielectric': False, 'piezoelectric': False, 'surface_properties': False, 'oxi_states': True, 'provenance': True, 'charge_density': True, 'eos': False, 'phonon': False, 'insertion_electrodes': True, 'substrates': True}",,,,,,
mp-cdpdw,Ni9S8,-0.610980450588233,0.0,True,0.0,3.5e-06,34,5.489332024506321,474.7847746905604,-5.618063498823528,,False,C222,21,Orthorhombic,222,NM,,"{'materials': True, 'thermo': True, 'xas': True, 'grain_boundaries': False, 'chemenv': True, 'electronic_structure': True, 'absorption': False, 'bandstructure': False, 'dos': True, 'magnetism': True, 'elasticity': False, 'dielectric': False, 'piezoelectric': False, 'surface_properties': False, 'oxi_states': True, 'provenance': True, 'charge_density': True, 'eos': False, 'phonon': False, 'insertion_electrodes': False, 'substrates': True}",,,,,,
mp-bpoz,Ni17S18,-0.5447124821428561,0.08686903723809401,False,0.0,0.021874599999999002,35,5.516740775250005,474.0623244215913,-5.480011978857143,,False,R-3m,166,Trigonal,-3m,NM,icsd-37164,"{'materials': True, 'thermo': True, 'xas': True, 'grain_boundaries': False, 'chemenv': True, 'electronic_structure': True, 'absorption': False, 'bandstructure': False, 'dos': False, 'magnetism': True, 'elasticity': False, 'dielectric': False, 'piezoelectric': False, 'surface_properties': False, 'oxi_states': True, 'provenance': True, 'charge_density': True, 'eos': False, 'phonon': False, 'insertion_electrodes': False, 'substrates': True}",,,,,,
mp-bwjod,CuS2,0.351664054618055,0.536854333333334,False,0.0,0.0026286,3,4.035024733365863,52.54267318712817,-8.61995943017361,,False,P-4m2,115,Tetragonal,-42m,NM,,"{'materials': True, 'thermo': True, 'xas': False, 'grain_boundaries': False, 'chemenv': True, 'electronic_structure': True, 'absorption': False, 'bandstructure': True, 'dos': True, 'magnetism': True, 'elasticity': False, 'dielectric': False, 'piezoelectric': False, 'surface_properties': False, 'oxi_states': True, 'provenance': True, 'charge_density': True, 'eos': False, 'phonon': False, 'insertion_electrodes': False, 'substrates': True}",,,,,,
mp-ckksb,CuS,0.015433938593751001,0.29321935666666604,False,0.0,0.0040488,2,2.625116563235804,60.4795241933915,-9.424982674999999,,False,P3m1,156,Trigonal,3m,NM,,"{'materials': True, 'thermo': True, 'xas': False, 'grain_boundaries': False, 'chemenv': True, 'electronic_structure': True, 'absorption': False, 'bandstructure': True, 'dos': True, 'magnetism': True, 'elasticity': False, 'dielectric': False, 'piezoelectric': False, 'surface_properties': False, 'oxi_states': True, 'provenance': True, 'charge_density': True, 'eos': False, 'phonon': False, 'insertion_electrodes': False, 'substrates': False}",,,,,,
mp-tk,CuS,-0.27765523557291705,0.000130182499997,False,0.0,1e-07,12,4.745603806875806,200.7320549599949,-9.718071849166668,,False,P6_3/mmc,194,Hexagonal,6/mmm,NM,"icsd-32107,icsd-41911,icsd-628808,icsd-32106,icsd-41975,icsd-26968,icsd-32105,icsd-67581,icsd-32108,icsd-36155,icsd-61793,icsd-63327","{'materials': True, 'thermo': True, 'xas': True, 'grain_boundaries': False, 'chemenv': True, 'electronic_structure': True, 'absorption': False, 'bandstructure': True, 'dos': True, 'magnetism': True, 'elasticity': True, 'dielectric': False, 'piezoelectric': False, 'surface_properties': False, 'oxi_states': True, 'provenance': True, 'charge_density': True, 'eos': False, 'phonon': False, 'insertion_electrodes': True, 'substrates': True}",,,,,,
mp-bftqx,CuS,0.008297158593752001,0.28608257666666603,False,0.0,2.8e-06,4,5.308297319071935,59.817975954839724,-9.432119454999999,,False,P6_3/mmc,194,Hexagonal,6/mmm,NM,icsd-24586,"{'materials': True, 'thermo': True, 'xas': True, 'grain_boundaries': False, 'chemenv': True, 'electronic_structure': True, 'absorption': False, 'bandstructure': True, 'dos': True, 'magnetism': True, 'elasticity': False, 'dielectric': False, 'piezoelectric': False, 'surface_properties': False, 'oxi_states': True, 'provenance': True, 'charge_density': True, 'eos': False, 'phonon': False, 'insertion_electrodes': False, 'substrates': True}",,,,,,
mp-bpc,CuS2,-0.176051346041667,0.009138932673611001,False,0.0,1.699999999999999e-06,12,4.39351922778992,193.02156187341402,-9.147674830833333,,False,Pa-3,205,Cubic,m-3,NM,"icsd-53328,icsd-628790,icsd-628799,icsd-628791,icsd-100510","{'materials': True, 'thermo': True, 'xas': True, 'grain_boundaries': False, 'chemenv': True, 'electronic_structure': True, 'absorption': False, 'bandstructure': True, 'dos': True, 'magnetism': True, 'elasticity': True, 'dielectric': False, 'piezoelectric': False, 'surface_properties': False, 'oxi_states': True, 'provenance': True, 'charge_density': True, 'eos': False, 'phonon': False, 'insertion_electrodes': False, 'substrates': True}",,,,,,
mp-brgvl,CuS,-0.267841336406249,0.009944081666665001,False,0.0,2.499999999999999e-06,2,4.622241568815497,34.34822657643533,-9.70825795,,False,F-43m,216,Cubic,-43m,NM,,"{'materials': True, 'thermo': True, 'xas': False, 'grain_boundaries': False, 'chemenv': True, 'electronic_structure': True, 'absorption': False, 'bandstructure': True, 'dos': True, 'magnetism': True, 'elasticity': True, 'dielectric': False, 'piezoelectric': False, 'surface_properties': False, 'oxi_states': True, 'provenance': True, 'charge_density': True, 'eos': False, 'phonon': False, 'insertion_electrodes': False, 'substrates': True}",,,,,,
mp-cgfnc,CuS,-0.152879446406249,0.124905971666665,False,0.0,0.0021995,2,5.46524051627785,29.05010314254594,-9.59329606,,False,Fm-3m,225,Cubic,m-3m,NM,,"{'materials': True, 'thermo': True, 'xas': False, 'grain_boundaries': False, 'chemenv': True, 'electronic_structure': True, 'absorption': False, 'bandstructure': True, 'dos': True, 'magnetism': True, 'elasticity': True, 'dielectric': False, 'piezoelectric': False, 'surface_properties': False, 'oxi_states': True, 'provenance': True, 'charge_density': True, 'eos': False, 'phonon': False, 'insertion_electrodes': True, 'substrates': True}",,,,,,
mp-bmysy,CuS2,-0.08546479538194501,0.099725483333333,False,0.0,0.0016009,3,3.536110748651634,59.955980153637455,-9.05708828017361,,False,C2,5,Monoclinic,2,NM,,"{'materials': True, 'thermo': True, 'xas': True, 'grain_boundaries': False, 'chemenv': True, 'electronic_structure': True, 'absorption': False, 'bandstructure': True, 'dos': True, 'magnetism': True, 'elasticity': False, 'dielectric': False, 'piezoelectric': False, 'surface_properties': False, 'oxi_states': True, 'provenance': True, 'charge_density': True, 'eos': False, 'phonon': False, 'insertion_electrodes': False, 'substrates': True}",,,,,,
mp-bwibe,CuS2,-0.180291191875001,0.004899086840277,False,0.0,0.0,6,4.331230764879235,97.89872550147206,-9.151914676666667,,False,Pnnm,58,Orthorhombic,mmm,NM,"icsd-628782,icsd-628781","{'materials': True, 'thermo': True, 'xas': True, 'grain_boundaries': False, 'chemenv': True, 'electronic_structure': True, 'absorption': False, 'bandstructure': True, 'dos': True, 'magnetism': True, 'elasticity': False, 'dielectric': False, 'piezoelectric': False, 'surface_properties': False, 'oxi_states': True, 'provenance': True, 'charge_density': True, 'eos': False, 'phonon': False, 'insertion_electrodes': True, 'substrates': True}",,,,,,
mp-cnhuu,CuS2,-0.14545980121527702,0.0397304775,False,0.0,0.0148119,12,3.827484809412397,221.5668998563784,-9.117083286006944,,False,Pbca,61,Orthorhombic,mmm,NM,,"{'materials': True, 'thermo': True, 'xas': False, 'grain_boundaries': False, 'chemenv': True, 'electronic_structure': True, 'absorption': False, 'bandstructure': False, 'dos': True, 'magnetism': True, 'elasticity': False, 'dielectric': False, 'piezoelectric': False, 'surface_properties': False, 'oxi_states': True, 'provenance': True, 'charge_density': True, 'eos': False, 'phonon': False, 'insertion_electrodes': False, 'substrates': False}",,,,,,
mp-bfpxf,CuS,-0.277785418072916,0.0,True,0.0,0.0,12,4.754606456722273,200.35197715119716,-9.718202031666666,,False,Cmcm,63,Orthorhombic,mmm,NM,icsd-63328,"{'materials': True, 'thermo': True, 'xas': True, 'grain_boundaries': False, 'chemenv': True, 'electronic_structure': True, 'absorption': False, 'bandstructure': True, 'dos': True, 'magnetism': True, 'elasticity': True, 'dielectric': False, 'piezoelectric': False, 'surface_properties': False, 'oxi_states': True, 'provenance': True, 'charge_density': True, 'eos': False, 'phonon': False, 'insertion_electrodes': True, 'substrates': True}",,,,,,
mp-bmkhb,Cu2S,-0.10112939690972,0.11094487881944501,False,0.0,0.000731,18,5.300124502416815,299.18514114414893,-10.010339139305554,,False,P1,1,Triclinic,1,NM,,"{'materials': True, 'thermo': True, 'xas': True, 'grain_boundaries': False, 'chemenv': True, 'electronic_structure': True, 'absorption': False, 'bandstructure': False, 'dos': False, 'magnetism': True, 'elasticity': False, 'dielectric': False, 'piezoelectric': False, 'surface_properties': False, 'oxi_states': True, 'provenance': True, 'charge_density': True, 'eos': False, 'phonon': False, 'insertion_electrodes': False, 'substrates': True}",,,,,,
mp-crtpp,Cu2S,-0.150157121354165,0.061917154375001004,False,1.2158,7.21e-05,6,3.478881184761393,151.93759268382877,-10.059366863749998,,False,C2/m,12,Monoclinic,2/m,NM,,"{'materials': True, 'thermo': True, 'xas': False, 'grain_boundaries': False, 'chemenv': True, 'electronic_structure': True, 'absorption': False, 'bandstructure': True, 'dos': True, 'magnetism': True, 'elasticity': False, 'dielectric': False, 'piezoelectric': False, 'surface_properties': False, 'oxi_states': True, 'provenance': True, 'charge_density': True, 'eos': False, 'phonon': False, 'insertion_electrodes': False, 'substrates': False}",,,,,,
mp-ekqmw,Cu2S,-0.13952935927083301,0.07254491645833201,False,0.9229,0.0,6,4.432904368398873,119.23849208518529,-10.048739101666667,,False,C2/m,12,Monoclinic,2/m,NM,,"{'materials': True, 'thermo': True, 'xas': False, 'grain_boundaries': False, 'chemenv': True, 'electronic_structure': True, 'absorption': False, 'bandstructure': False, 'dos': False, 'magnetism': True, 'elasticity': False, 'dielectric': False, 'piezoelectric': False, 'surface_properties': False, 'oxi_states': True, 'provenance': True, 'charge_density': False, 'eos': False, 'phonon': False, 'insertion_electrodes': False, 'substrates': False}",,,,,,
mp-dbigz,Cu2S,-0.084396866354166,0.12767740937499902,False,0.0,0.00015989999999900002,6,6.235688438267789,84.7657540427957,-9.99360660875,,False,I-42d,122,Tetragonal,-42m,NM,,"{'materials': True, 'thermo': True, 'xas': True, 'grain_boundaries': False, 'chemenv': True, 'electronic_structure': True, 'absorption': False, 'bandstructure': True, 'dos': True, 'magnetism': True, 'elasticity': False, 'dielectric': False, 'piezoelectric': False, 'surface_properties': False, 'oxi_states': True, 'provenance': True, 'charge_density': True, 'eos': False, 'phonon': False, 'insertion_electrodes': False, 'substrates': True}",,,,,,
mp-bhbui,Cu2S,-0.19943631746527501,0.012637958263891,False,0.34750000000000003,0.0,144,5.87141141186352,2160.5959945277928,-10.108646059861108,,False,P2_1/c,14,Monoclinic,2/m,NM,"icsd-23596,icsd-100333,icsd-628801","{'materials': True, 'thermo': True, 'xas': True, 'grain_boundaries': False, 'chemenv': True, 'electronic_structure': True, 'absorption': False, 'bandstructure': False, 'dos': False, 'magnetism': True, 'elasticity': False, 'dielectric': False, 'piezoelectric': False, 'surface_properties': False, 'oxi_states': True, 'provenance': True, 'charge_density': False, 'eos': False, 'phonon': False, 'insertion_electrodes': False, 'substrates': True}",,,,,,
mp-gfcen,Cu2S,-0.11657263468749901,0.095501641041666,False,0.0,0.0,6,5.658901154984195,93.40556019080854,-10.025782377083333,,False,I4_1/amd,141,Tetragonal,4/mmm,NM,,"{'materials': True, 'thermo': True, 'xas': False, 'grain_boundaries': False, 'chemenv': True, 'electronic_structure': True, 'absorption': False, 'bandstructure': False, 'dos': False, 'magnetism': True, 'elasticity': True, 'dielectric': False, 'piezoelectric': False, 'surface_properties': False, 'oxi_states': True, 'provenance': True, 'charge_density': False, 'eos': False, 'phonon': False, 'insertion_electrodes': False, 'substrates': False}",,,,,,
mp-crtjn,Cu2S,-0.15517892260416702,0.05689535312499801,False,0.0,0.0,6,5.441582860881794,97.13586027431336,-10.064388665000001,,False,C2/c,15,Monoclinic,2/m,NM,,"{'materials': True, 'thermo': True, 'xas': False, 'grain_boundaries': False, 'chemenv': True, 'electronic_structure': True, 'absorption': False, 'bandstructure': True, 'dos': True, 'magnetism': True, 'elasticity': False, 'dielectric': False, 'piezoelectric': False, 'surface_properties': False, 'oxi_states': True, 'provenance': True, 'charge_density': True, 'eos': False, 'phonon': False, 'insertion_electrodes': False, 'substrates': False}",,,,,,
mp-bfnlm,Cu2S,0.026381998645833002,0.23845627437500003,False,0.0,0.0016661999999990002,6,6.301414730161676,83.88161311073563,-9.88282774375,,False,P6_3/mmc,194,Hexagonal,6/mmm,NM,"icsd-20560,icsd-166578","{'materials': True, 'thermo': True, 'xas': True, 'grain_boundaries': False, 'chemenv': True, 'electronic_structure': True, 'absorption': False, 'bandstructure': True, 'dos': True, 'magnetism': True, 'elasticity': False, 'dielectric': False, 'piezoelectric': False, 'surface_properties': False, 'oxi_states': True, 'provenance': True, 'charge_density': True, 'eos': False, 'phonon': False, 'insertion_electrodes': False, 'substrates': True}",,,,,,