material_id,formula_pretty,formation_energy_per_atom,energy_above_hull,is_stable,band_gap,total_magnetization,nsites,density,volume,energy_per_atom,e_total,is_magnetic,space_group_symbol,space_group_number,crystal_system,point_group,ordering,icsd_ids,has_props,lattice_a,lattice_b,lattice_c,lattice_alpha,lattice_beta,lattice_gamma
mp-cposu,Tl3S,-0.22314765937500503,0.15568961972222,False,0.0,3.2800000000000004e-05,4,9.423225846097672,113.69827756448183,-3.036101175,,False,I4/mmm,139,Tetragonal,4/mmm,NM,,"{'materials': True, 'thermo': True, 'xas': False, 'grain_boundaries': False, 'chemenv': True, 'electronic_structure': True, 'absorption': False, 'bandstructure': True, 'dos': True, 'magnetism': True, 'elasticity': False, 'dielectric': False, 'piezoelectric': False, 'surface_properties': False, 'oxi_states': True, 'provenance': True, 'charge_density': True, 'eos': False, 'phonon': False, 'insertion_electrodes': False, 'substrates': False}",,,,,,
mp-cpotc,Tl3S,-0.217096310625005,0.16174096847222003,False,0.0,0.0007019,8,9.420381901798953,227.46520448344296,-3.03004982625,,False,P6_3/mmc,194,Hexagonal,6/mmm,NM,,"{'materials': True, 'thermo': True, 'xas': False, 'grain_boundaries': False, 'chemenv': True, 'electronic_structure': True, 'absorption': False, 'bandstructure': True, 'dos': True, 'magnetism': True, 'elasticity': False, 'dielectric': False, 'piezoelectric': False, 'surface_properties': False, 'oxi_states': True, 'provenance': True, 'charge_density': True, 'eos': False, 'phonon': False, 'insertion_electrodes': False, 'substrates': False}",,,,,,
mp-ebx,Tl4S3,-0.49433550083333205,0.009123074126986,False,0.8601000000000001,0.0,28,7.46641486949202,812.8567184519853,-3.622632872857139,,False,P2_1/c,14,Monoclinic,2/m,NM,"icsd-651236,icsd-2647,icsd-651232","{'materials': True, 'thermo': True, 'xas': True, 'grain_boundaries': False, 'chemenv': True, 'electronic_structure': True, 'absorption': False, 'bandstructure': True, 'dos': True, 'magnetism': True, 'elasticity': False, 'dielectric': False, 'piezoelectric': False, 'surface_properties': False, 'oxi_states': True, 'provenance': True, 'charge_density': True, 'eos': False, 'phonon': False, 'insertion_electrodes': False, 'substrates': True}",,,,,,
mp-bqzcz,Tl6S,-0.12267292821429202,0.09380551698412201,False,0.0,0.0114798,7,9.297122853209194,224.7538236749251,-2.74642013,,False,P31m,157,Trigonal,3m,NM,,"{'materials': True, 'thermo': True, 'xas': False, 'grain_boundaries': False, 'chemenv': True, 'electronic_structure': True, 'absorption': False, 'bandstructure': True, 'dos': True, 'magnetism': True, 'elasticity': False, 'dielectric': False, 'piezoelectric': False, 'surface_properties': False, 'oxi_states': True, 'provenance': True, 'charge_density': True, 'eos': False, 'phonon': False, 'insertion_electrodes': False, 'substrates': True}",,,,,,
mp-cfaix,SnS2,-0.397310885208331,0.076658843333333,False,1.8354,1.6e-06,6,3.520251332150652,172.4950489553003,-14.00206363,,False,I-42d,122,Tetragonal,-42m,NM,,"{'materials': True, 'thermo': True, 'xas': True, 'grain_boundaries': False, 'chemenv': True, 'electronic_structure': True, 'absorption': False, 'bandstructure': True, 'dos': True, 'magnetism': True, 'elasticity': False, 'dielectric': False, 'piezoelectric': False, 'surface_properties': False, 'oxi_states': True, 'provenance': True, 'charge_density': True, 'eos': False, 'phonon': False, 'insertion_electrodes': False, 'substrates': True}",,,,,,
mp-bta,SnS2,-0.473969728541665,0.0,True,1.514799999999999,0.0,3,4.169006438095262,72.82621589710445,-14.078722473333334,16.000249023170376,False,P-3m1,164,Trigonal,-3m,NM,"icsd-656779,icsd-650993,icsd-100610,icsd-100612,icsd-650999,icsd-651010,icsd-252207,icsd-651013,icsd-252208,icsd-252210,icsd-43004,icsd-650992,icsd-252205,icsd-651022,icsd-42566,icsd-252198,icsd-252204,icsd-650996,icsd-602283,icsd-252206,icsd-252197,icsd-252201,icsd-659217,icsd-29012,icsd-100611","{'materials': True, 'thermo': True, 'xas': True, 'grain_boundaries': False, 'chemenv': True, 'electronic_structure': True, 'absorption': True, 'bandstructure': True, 'dos': True, 'magnetism': True, 'elasticity': True, 'dielectric': True, 'piezoelectric': False, 'surface_properties': False, 'oxi_states': True, 'provenance': True, 'charge_density': True, 'eos': False, 'phonon': False, 'insertion_electrodes': True, 'substrates': True}",,,,,,
mp-oua,SnS2,-0.473668063541666,0.000301665,False,1.4856999999999991,0.0,6,4.205587972220278,144.38550088246328,-14.078420808333334,12.476000009288263,False,P6_3mc,186,Hexagonal,6mm,NM,icsd-43003,"{'materials': True, 'thermo': True, 'xas': True, 'grain_boundaries': False, 'chemenv': True, 'electronic_structure': True, 'absorption': False, 'bandstructure': True, 'dos': True, 'magnetism': True, 'elasticity': False, 'dielectric': True, 'piezoelectric': True, 'surface_properties': False, 'oxi_states': True, 'provenance': True, 'charge_density': True, 'eos': False, 'phonon': False, 'insertion_electrodes': False, 'substrates': True}",,,,,,
mp-bpjxy,SnS,-0.38690704640625,0.08517406874999901,False,1.4274,0.0,4,2.7624505309242293,181.2649855364829,-16.77701755,,False,P-1,2,Triclinic,-1,NM,icsd-41091,"{'materials': True, 'thermo': True, 'xas': False, 'grain_boundaries': False, 'chemenv': True, 'electronic_structure': True, 'absorption': False, 'bandstructure': True, 'dos': True, 'magnetism': True, 'elasticity': False, 'dielectric': False, 'piezoelectric': False, 'surface_properties': False, 'oxi_states': True, 'provenance': True, 'charge_density': True, 'eos': False, 'phonon': False, 'insertion_electrodes': False, 'substrates': False}",,,,,,
mp-ovd,SnS,-0.19369474390624902,0.27838637125000004,False,0.16540000000000002,0.0002162,2,3.596186603638918,69.62035215671848,-16.5838052475,,False,F-43m,216,Cubic,-43m,NM,icsd-43409,"{'materials': True, 'thermo': True, 'xas': True, 'grain_boundaries': False, 'chemenv': True, 'electronic_structure': True, 'absorption': False, 'bandstructure': True, 'dos': True, 'magnetism': True, 'elasticity': False, 'dielectric': False, 'piezoelectric': False, 'surface_properties': False, 'oxi_states': True, 'provenance': True, 'charge_density': True, 'eos': False, 'phonon': False, 'insertion_electrodes': False, 'substrates': True}",,,,,,
mp-cue,SnS,-0.38045513140625004,0.091625983749999,False,0.08940000000000001,0.0,2,5.104741191052638,49.046125630315665,-16.770565635,,False,Fm-3m,225,Cubic,m-3m,NM,"icsd-651015,icsd-52107","{'materials': True, 'thermo': True, 'xas': True, 'grain_boundaries': False, 'chemenv': True, 'electronic_structure': True, 'absorption': False, 'bandstructure': True, 'dos': True, 'magnetism': True, 'elasticity': True, 'dielectric': False, 'piezoelectric': False, 'surface_properties': False, 'oxi_states': True, 'provenance': True, 'charge_density': True, 'eos': False, 'phonon': False, 'insertion_electrodes': False, 'substrates': True}",,,,,,
mp-ckikr,SnS2,-0.470747321874997,0.003222406666669,False,1.2026,0.0,12,4.279461040069728,283.7861684864849,-14.075500066666665,,False,Fd-3m,227,Cubic,m-3m,NM,icsd-193391,"{'materials': True, 'thermo': True, 'xas': True, 'grain_boundaries': False, 'chemenv': True, 'electronic_structure': True, 'absorption': False, 'bandstructure': True, 'dos': True, 'magnetism': True, 'elasticity': False, 'dielectric': False, 'piezoelectric': False, 'surface_properties': False, 'oxi_states': True, 'provenance': True, 'charge_density': True, 'eos': False, 'phonon': False, 'insertion_electrodes': False, 'substrates': False}",,,,,,
mp-bfnsw,SnS,-0.39338853890625103,0.07869257624999901,False,1.6680000000000001,0.0,4,1.307605374587132,382.94088206186353,-16.7834990425,,False,Aem2,39,Orthorhombic,mm2,NM,icsd-79374,"{'materials': True, 'thermo': True, 'xas': True, 'grain_boundaries': False, 'chemenv': False, 'electronic_structure': True, 'absorption': False, 'bandstructure': True, 'dos': True, 'magnetism': True, 'elasticity': True, 'dielectric': False, 'piezoelectric': False, 'surface_properties': False, 'oxi_states': True, 'provenance': True, 'charge_density': True, 'eos': False, 'phonon': False, 'insertion_electrodes': False, 'substrates': True}",,,,,,
mp-mzt,SnS,-0.39386153640624805,0.078219578750001,False,1.456,0.0,4,2.673939630576463,187.26509372437795,-16.78397204,16.06159495,False,Aem2,39,Orthorhombic,mm2,NM,"icsd-41089,icsd-67442","{'materials': True, 'thermo': True, 'xas': True, 'grain_boundaries': False, 'chemenv': True, 'electronic_structure': True, 'absorption': False, 'bandstructure': True, 'dos': True, 'magnetism': True, 'elasticity': False, 'dielectric': True, 'piezoelectric': True, 'surface_properties': False, 'oxi_states': True, 'provenance': True, 'charge_density': True, 'eos': False, 'phonon': False, 'insertion_electrodes': False, 'substrates': True}",,,,,,
mp-dhv,SnS,-0.47208111515625006,0.0,True,0.904799999999999,0.0,8,4.9013983903761495,204.3235483638381,-16.86219161875,48.05776801,False,Pnma,62,Orthorhombic,mmm,NM,"icsd-651025,icsd-651019,icsd-651017,icsd-651008,icsd-52108,icsd-41739,icsd-650990,icsd-650998,icsd-106028,icsd-52109,icsd-30271,icsd-651018,icsd-52110,icsd-41750,icsd-156130,icsd-106029,icsd-106030,icsd-656776,icsd-24376","{'materials': True, 'thermo': True, 'xas': True, 'grain_boundaries': False, 'chemenv': True, 'electronic_structure': True, 'absorption': False, 'bandstructure': True, 'dos': True, 'magnetism': True, 'elasticity': True, 'dielectric': True, 'piezoelectric': False, 'surface_properties': False, 'oxi_states': True, 'provenance': True, 'charge_density': True, 'eos': False, 'phonon': False, 'insertion_electrodes': False, 'substrates': True}",,,,,,
mp-cbb,SnS,-0.39592302890624903,0.07615808624999901,False,1.1323,0.0,4,3.93571391231366,127.22864687054096,-16.7860335325,,False,Cmcm,63,Orthorhombic,mmm,NM,"icsd-651004,icsd-52106","{'materials': True, 'thermo': True, 'xas': True, 'grain_boundaries': False, 'chemenv': True, 'electronic_structure': True, 'absorption': False, 'bandstructure': True, 'dos': True, 'magnetism': True, 'elasticity': False, 'dielectric': False, 'piezoelectric': False, 'surface_properties': False, 'oxi_states': True, 'provenance': True, 'charge_density': True, 'eos': False, 'phonon': False, 'insertion_electrodes': False, 'substrates': True}",,,,,,
mp-bfvya,SnS,-0.443577061406251,0.028504053749998003,False,0.3113,0.0,4,5.074195129179051,98.68275515337609,-16.833687565,,False,Cmcm,63,Orthorhombic,mmm,NM,"icsd-651020,icsd-100672","{'materials': True, 'thermo': True, 'xas': True, 'grain_boundaries': False, 'chemenv': True, 'electronic_structure': True, 'absorption': False, 'bandstructure': True, 'dos': True, 'magnetism': True, 'elasticity': True, 'dielectric': False, 'piezoelectric': False, 'surface_properties': False, 'oxi_states': True, 'provenance': True, 'charge_density': True, 'eos': False, 'phonon': False, 'insertion_electrodes': False, 'substrates': True}",,,,,,
mp-cgb,Sn2S3,-0.47389199418749905,0.0,True,0.7774000000000001,0.0,20,4.461675175551384,496.657169252844,-15.1927878425,,False,Pnma,62,Orthorhombic,mmm,NM,"icsd-97513,icsd-656782,icsd-31995,icsd-653956,icsd-15338,icsd-651024","{'materials': True, 'thermo': True, 'xas': True, 'grain_boundaries': False, 'chemenv': True, 'electronic_structure': True, 'absorption': False, 'bandstructure': True, 'dos': True, 'magnetism': True, 'elasticity': True, 'dielectric': False, 'piezoelectric': False, 'surface_properties': False, 'oxi_states': True, 'provenance': True, 'charge_density': True, 'eos': False, 'phonon': False, 'insertion_electrodes': False, 'substrates': True}",,,,,,
mp-cqkdb,Sn3S7,-0.156059958999998,0.270512796687498,False,0.0,8.0120332,40,1.617088086990735,2384.7410211920874,-13.20374115203125,,True,C2/c,15,Monoclinic,2/m,FM,icsd-110760,"{'materials': True, 'thermo': True, 'xas': True, 'grain_boundaries': False, 'chemenv': True, 'electronic_structure': True, 'absorption': False, 'bandstructure': False, 'dos': False, 'magnetism': True, 'elasticity': False, 'dielectric': False, 'piezoelectric': False, 'surface_properties': False, 'oxi_states': True, 'provenance': True, 'charge_density': False, 'eos': False, 'phonon': False, 'insertion_electrodes': False, 'substrates': False}",,,,,,
mp-cpnzi,Sn3S,0.080744175546875,0.31678473312500005,False,0.0,0.0003526,4,6.552648437563735,98.37441594813426,-20.48740296625,,False,Fm-3m,225,Cubic,m-3m,NM,,"{'materials': True, 'thermo': True, 'xas': False, 'grain_boundaries': False, 'chemenv': True, 'electronic_structure': True, 'absorption': False, 'bandstructure': True, 'dos': True, 'magnetism': True, 'elasticity': False, 'dielectric': False, 'piezoelectric': False, 'surface_properties': False, 'oxi_states': True, 'provenance': True, 'charge_density': True, 'eos': False, 'phonon': False, 'insertion_electrodes': False, 'substrates': False}",,,,,,
mp-cqlql,Sn3S7,-0.155018231749999,0.271554523937496,False,0.0,8.0138721,40,1.6530798171627512,2332.8191753902315,-13.202699424781253,,True,Cc,9,Monoclinic,m,FM,icsd-110755,"{'materials': True, 'thermo': True, 'xas': True, 'grain_boundaries': False, 'chemenv': True, 'electronic_structure': True, 'absorption': False, 'bandstructure': False, 'dos': False, 'magnetism': True, 'elasticity': False, 'dielectric': False, 'piezoelectric': False, 'surface_properties': False, 'oxi_states': True, 'provenance': True, 'charge_density': False, 'eos': False, 'phonon': False, 'insertion_electrodes': False, 'substrates': False}",,,,,,
mp-cjjsi,PbS,-0.701380671249997,0.0826696325,False,0.7479999999999991,0.002157499999999,8,6.490216639031639,244.8663284246417,-4.6264030625,,False,P2_1/m,11,Monoclinic,2/m,NM,icsd-183248,"{'materials': True, 'thermo': True, 'xas': False, 'grain_boundaries': False, 'chemenv': True, 'electronic_structure': True, 'absorption': False, 'bandstructure': True, 'dos': True, 'magnetism': True, 'elasticity': False, 'dielectric': False, 'piezoelectric': False, 'surface_properties': False, 'oxi_states': True, 'provenance': True, 'charge_density': True, 'eos': False, 'phonon': False, 'insertion_electrodes': False, 'substrates': False}",,,,,,
mp-cjwsk,PbS,-0.702153016249998,0.081897287499999,False,1.223799999999999,0.0005652,8,6.288228057126069,252.73185142819543,-4.6271754075,,False,P2_1/m,11,Monoclinic,2/m,NM,"icsd-183247,icsd-183246","{'materials': True, 'thermo': True, 'xas': True, 'grain_boundaries': False, 'chemenv': True, 'electronic_structure': True, 'absorption': False, 'bandstructure': True, 'dos': True, 'magnetism': True, 'elasticity': False, 'dielectric': False, 'piezoelectric': False, 'surface_properties': False, 'oxi_states': True, 'provenance': True, 'charge_density': True, 'eos': False, 'phonon': False, 'insertion_electrodes': False, 'substrates': False}",,,,,,
mp-bpige,PbS,-0.7250773837499991,0.05897291999999801,False,1.719399999999999,0.0,4,2.699717198511583,294.3337027960518,-4.650099775000001,,False,C2/m,12,Monoclinic,2/m,NM,icsd-41087,"{'materials': True, 'thermo': True, 'xas': False, 'grain_boundaries': False, 'chemenv': False, 'electronic_structure': True, 'absorption': False, 'bandstructure': True, 'dos': True, 'magnetism': True, 'elasticity': False, 'dielectric': False, 'piezoelectric': False, 'surface_properties': False, 'oxi_states': True, 'provenance': True, 'charge_density': True, 'eos': False, 'phonon': False, 'insertion_electrodes': False, 'substrates': False}",,,,,,
mp-bpjxz,PbS,-0.7260083862499981,0.05804191749999801,False,1.654,0.0,4,3.9970786431028253,198.79963105335787,-4.651030777500001,,False,C2/m,12,Monoclinic,2/m,NM,icsd-41154,"{'materials': True, 'thermo': True, 'xas': True, 'grain_boundaries': False, 'chemenv': True, 'electronic_structure': True, 'absorption': False, 'bandstructure': True, 'dos': True, 'magnetism': True, 'elasticity': False, 'dielectric': False, 'piezoelectric': False, 'surface_properties': False, 'oxi_states': True, 'provenance': True, 'charge_density': True, 'eos': False, 'phonon': False, 'insertion_electrodes': False, 'substrates': False}",,,,,,
mp-fdsxr,PbS,-0.7249510262499981,0.059099277499999006,False,1.6745,1.1e-06,4,3.893559459289583,204.085173951622,-4.6499734175,,False,P4/nmm,129,Tetragonal,4/mmm,NM,,"{'materials': True, 'thermo': True, 'xas': False, 'grain_boundaries': False, 'chemenv': True, 'electronic_structure': True, 'absorption': False, 'bandstructure': False, 'dos': False, 'magnetism': True, 'elasticity': False, 'dielectric': False, 'piezoelectric': False, 'surface_properties': False, 'oxi_states': True, 'provenance': True, 'charge_density': False, 'eos': False, 'phonon': False, 'insertion_electrodes': False, 'substrates': False}",,,,,,
mp-cgiip,PbS2,-0.6219328300000001,0.0,True,0.083,0.0,6,6.308631364822357,142.83734106035055,-4.617746995000002,84.65459539999996,False,I4/mcm,140,Tetragonal,4/mmm,NM,,"{'materials': True, 'thermo': True, 'xas': False, 'grain_boundaries': False, 'chemenv': True, 'electronic_structure': True, 'absorption': False, 'bandstructure': True, 'dos': True, 'magnetism': True, 'elasticity': False, 'dielectric': True, 'piezoelectric': False, 'surface_properties': False, 'oxi_states': True, 'provenance': True, 'charge_density': True, 'eos': False, 'phonon': False, 'insertion_electrodes': False, 'substrates': True}",,,,,,
mp-cidql,PbS,-0.782691748749998,0.0013585549999990002,False,0.5555,0.0,2,7.444189541445099,53.37167700500565,-4.70771414,,False,R3m,160,Trigonal,3m,NM,icsd-183243,"{'materials': True, 'thermo': True, 'xas': False, 'grain_boundaries': False, 'chemenv': True, 'electronic_structure': True, 'absorption': False, 'bandstructure': True, 'dos': True, 'magnetism': True, 'elasticity': False, 'dielectric': False, 'piezoelectric': False, 'surface_properties': False, 'oxi_states': True, 'provenance': True, 'charge_density': True, 'eos': False, 'phonon': False, 'insertion_electrodes': False, 'substrates': False}",,,,,,
mp-cqrax,PbS2,-0.28809032833333104,0.333842501666667,False,0.44370000000000004,0.0004567,3,5.679453291767977,79.33053443605719,-4.283904493333334,,False,P-3m1,164,Trigonal,-3m,NM,,"{'materials': True, 'thermo': True, 'xas': False, 'grain_boundaries': False, 'chemenv': True, 'electronic_structure': True, 'absorption': False, 'bandstructure': True, 'dos': True, 'magnetism': True, 'elasticity': False, 'dielectric': False, 'piezoelectric': False, 'surface_properties': False, 'oxi_states': True, 'provenance': True, 'charge_density': True, 'eos': False, 'phonon': False, 'insertion_electrodes': False, 'substrates': False}",,,,,,
mp-cfprv,PbS,-0.727595118749996,0.056455185000000005,False,0.5949,0.0,4,7.165179808895744,110.89990491984035,-4.652617509999999,,False,P6_3mc,186,Hexagonal,6mm,NM,icsd-183255,"{'materials': True, 'thermo': True, 'xas': True, 'grain_boundaries': False, 'chemenv': True, 'electronic_structure': True, 'absorption': False, 'bandstructure': True, 'dos': True, 'magnetism': True, 'elasticity': False, 'dielectric': False, 'piezoelectric': False, 'surface_properties': False, 'oxi_states': True, 'provenance': True, 'charge_density': True, 'eos': False, 'phonon': False, 'insertion_electrodes': False, 'substrates': True}",,,,,,
mp-cflkx,PbS,-0.6602365037499981,0.12381379999999902,False,0.0,0.00019659999999900002,2,7.240792291249548,54.870912434568,-4.585258895,,False,P-6m2,187,Hexagonal,-6m2,NM,icsd-183245,"{'materials': True, 'thermo': True, 'xas': True, 'grain_boundaries': False, 'chemenv': True, 'electronic_structure': True, 'absorption': False, 'bandstructure': True, 'dos': True, 'magnetism': True, 'elasticity': False, 'dielectric': False, 'piezoelectric': False, 'surface_properties': False, 'oxi_states': True, 'provenance': True, 'charge_density': True, 'eos': False, 'phonon': False, 'insertion_electrodes': False, 'substrates': True}",,,,,,