material_id,formula_pretty,formation_energy_per_atom,energy_above_hull,is_stable,band_gap,total_magnetization,nsites,density,volume,energy_per_atom,e_total,is_magnetic,space_group_symbol,space_group_number,crystal_system,point_group,ordering,icsd_ids,has_props,lattice_a,lattice_b,lattice_c,lattice_alpha,lattice_beta,lattice_gamma
mp-decog,CrS2,-0.839727338333331,0.029461006666667,False,0.0,8.0498836,12,3.638624562521816,211.98331665001731,-6.81567497,,True,R-3m,166,Trigonal,-3m,FM,,"{'materials': True, 'thermo': True, 'xas': False, 'grain_boundaries': False, 'chemenv': True, 'electronic_structure': True, 'absorption': False, 'bandstructure': False, 'dos': True, 'magnetism': True, 'elasticity': False, 'dielectric': False, 'piezoelectric': False, 'surface_properties': False, 'oxi_states': True, 'provenance': True, 'charge_density': True, 'eos': False, 'phonon': False, 'insertion_electrodes': True, 'substrates': True}",,,,,,
mp-ud,CrS,-0.70254008625,0.125274506666665,False,0.0,5.7850507,4,4.893697272358381,57.047558425737805,-7.5977626775000004,,True,P6_3/mmc,194,Hexagonal,6/mmm,FM,"icsd-626595,icsd-102845,icsd-626613,icsd-49666,icsd-626593,icsd-626605","{'materials': True, 'thermo': True, 'xas': True, 'grain_boundaries': False, 'chemenv': True, 'electronic_structure': True, 'absorption': False, 'bandstructure': True, 'dos': True, 'magnetism': True, 'elasticity': True, 'dielectric': False, 'piezoelectric': False, 'surface_properties': False, 'oxi_states': True, 'provenance': True, 'charge_density': True, 'eos': False, 'phonon': False, 'insertion_electrodes': False, 'substrates': True}",,,,,,
mp-dcbsm,CrS2,-0.6680134399999981,0.20117490500000101,False,0.0,0.1963294,12,3.531709213099511,218.40068257790045,-6.643961071666666,,True,Fd-3m,227,Cubic,m-3m,FM,,"{'materials': True, 'thermo': True, 'xas': False, 'grain_boundaries': False, 'chemenv': True, 'electronic_structure': True, 'absorption': False, 'bandstructure': False, 'dos': True, 'magnetism': True, 'elasticity': True, 'dielectric': False, 'piezoelectric': False, 'surface_properties': False, 'oxi_states': True, 'provenance': True, 'charge_density': True, 'eos': False, 'phonon': False, 'insertion_electrodes': True, 'substrates': True}",,,,,,
mp-bwibb,Cr2S3,-0.965671559499999,0.027705951999998,False,0.0,22.000184,20,3.958269979702386,335.9231865818929,-7.309329175,,True,P3,143,Trigonal,3,FM,,"{'materials': True, 'thermo': True, 'xas': True, 'grain_boundaries': False, 'chemenv': True, 'electronic_structure': True, 'absorption': False, 'bandstructure': True, 'dos': True, 'magnetism': True, 'elasticity': False, 'dielectric': False, 'piezoelectric': False, 'surface_properties': False, 'oxi_states': True, 'provenance': True, 'charge_density': True, 'eos': False, 'phonon': False, 'insertion_electrodes': False, 'substrates': True}",,,,,,
mp-bwiaz,Cr2S3,-0.693736492499998,0.299641018999999,False,0.0,0.0276817,10,3.957811866080439,167.9810347137462,-7.037394107999999,,True,R3,146,Trigonal,3,FM,,"{'materials': True, 'thermo': True, 'xas': False, 'grain_boundaries': False, 'chemenv': True, 'electronic_structure': True, 'absorption': False, 'bandstructure': True, 'dos': True, 'magnetism': True, 'elasticity': False, 'dielectric': False, 'piezoelectric': False, 'surface_properties': False, 'oxi_states': True, 'provenance': True, 'charge_density': False, 'eos': False, 'phonon': False, 'insertion_electrodes': False, 'substrates': True}",,,,,,
mp-bfpwb,Cr2S3,-0.9933775114999971,0.0,True,0.0,12.0,10,3.764567640433815,176.60390142171053,-7.337035126999998,,True,R-3,148,Trigonal,-3,FM,"icsd-16721,icsd-626604","{'materials': True, 'thermo': True, 'xas': True, 'grain_boundaries': False, 'chemenv': True, 'electronic_structure': True, 'absorption': False, 'bandstructure': True, 'dos': True, 'magnetism': True, 'elasticity': False, 'dielectric': False, 'piezoelectric': False, 'surface_properties': False, 'oxi_states': True, 'provenance': True, 'charge_density': True, 'eos': False, 'phonon': False, 'insertion_electrodes': False, 'substrates': True}",,,,,,
mp-ugj,Cr2S3,-0.9927963924999981,0.000581118999998,False,0.0,23.9992252,20,3.753542270889839,354.2452885758627,-7.3364540080000005,,True,P-31c,163,Trigonal,-3m,FM,icsd-16720,"{'materials': True, 'thermo': True, 'xas': True, 'grain_boundaries': False, 'chemenv': True, 'electronic_structure': True, 'absorption': False, 'bandstructure': True, 'dos': True, 'magnetism': True, 'elasticity': False, 'dielectric': False, 'piezoelectric': False, 'surface_properties': False, 'oxi_states': True, 'provenance': True, 'charge_density': True, 'eos': False, 'phonon': False, 'insertion_electrodes': False, 'substrates': True}",,,,,,
mp-cyhus,Cr2S5,-0.566183518214285,0.17883506321428402,False,0.20270000000000002,8.6e-05,14,2.2971825195953812,382.12813551413706,-6.279481161428571,,False,Pmmn,59,Orthorhombic,mmm,NM,,"{'materials': True, 'thermo': True, 'xas': True, 'grain_boundaries': False, 'chemenv': True, 'electronic_structure': True, 'absorption': False, 'bandstructure': False, 'dos': False, 'magnetism': True, 'elasticity': False, 'dielectric': False, 'piezoelectric': False, 'surface_properties': False, 'oxi_states': True, 'provenance': True, 'charge_density': True, 'eos': False, 'phonon': False, 'insertion_electrodes': True, 'substrates': True}",,,,,,
mp-bwiap,Cr3S4,-0.92470213642857,0.021371684047617003,False,0.0,17.8785457,14,4.155636022948302,227.16397882688608,-7.4259497450000005,,True,P2_1/m,11,Monoclinic,2/m,FM,,"{'materials': True, 'thermo': True, 'xas': False, 'grain_boundaries': False, 'chemenv': True, 'electronic_structure': True, 'absorption': False, 'bandstructure': True, 'dos': True, 'magnetism': True, 'elasticity': False, 'dielectric': False, 'piezoelectric': False, 'surface_properties': False, 'oxi_states': True, 'provenance': True, 'charge_density': True, 'eos': False, 'phonon': False, 'insertion_electrodes': False, 'substrates': True}",,,,,,
mp-blc,Cr3S4,-0.945570032857142,0.0005037876190450001,False,0.0,20.0030626,14,3.899736234008015,242.0704265321686,-7.446817641428572,,True,C2/m,12,Monoclinic,2/m,FM,"icsd-626598,icsd-192944,icsd-626607,icsd-16722,icsd-81886","{'materials': True, 'thermo': True, 'xas': True, 'grain_boundaries': False, 'chemenv': True, 'electronic_structure': True, 'absorption': False, 'bandstructure': True, 'dos': True, 'magnetism': True, 'elasticity': False, 'dielectric': False, 'piezoelectric': False, 'surface_properties': False, 'oxi_states': True, 'provenance': True, 'charge_density': True, 'eos': False, 'phonon': False, 'insertion_electrodes': False, 'substrates': True}",,,,,,
mp-cpgmb,Cr5S8,-0.9787200392307681,0.0,True,0.0,27.9998481,26,3.749503610476083,457.4841617819021,-7.237521504615385,,True,C2/m,12,Monoclinic,2/m,FM,icsd-626594,"{'materials': True, 'thermo': True, 'xas': False, 'grain_boundaries': False, 'chemenv': True, 'electronic_structure': True, 'absorption': False, 'bandstructure': False, 'dos': False, 'magnetism': True, 'elasticity': False, 'dielectric': False, 'piezoelectric': False, 'surface_properties': False, 'oxi_states': True, 'provenance': True, 'charge_density': True, 'eos': False, 'phonon': False, 'insertion_electrodes': False, 'substrates': False}",,,,,,
mp-byl,Cr5S6,-0.8685724436363611,0.034498021363635,False,0.0,30.5320315,22,4.282994203017067,350.7727782111976,-7.513083682272727,,True,P-31c,163,Trigonal,-3m,FM,"icsd-16719,icsd-43046,icsd-43045,icsd-43044,icsd-43043,icsd-626606","{'materials': True, 'thermo': True, 'xas': True, 'grain_boundaries': False, 'chemenv': True, 'electronic_structure': True, 'absorption': False, 'bandstructure': True, 'dos': True, 'magnetism': True, 'elasticity': False, 'dielectric': False, 'piezoelectric': False, 'surface_properties': False, 'oxi_states': True, 'provenance': True, 'charge_density': True, 'eos': False, 'phonon': False, 'insertion_electrodes': False, 'substrates': True}",,,,,,
mp-bmyvq,Cr5S8,-0.969433726153844,0.009286313076923,False,0.0,24.0000001,39,3.730108942241857,689.794269911827,-7.228235191538461,,True,P-1,2,Triclinic,-1,FiM,,"{'materials': True, 'thermo': True, 'xas': True, 'grain_boundaries': False, 'chemenv': True, 'electronic_structure': True, 'absorption': False, 'bandstructure': False, 'dos': False, 'magnetism': True, 'elasticity': False, 'dielectric': False, 'piezoelectric': False, 'surface_properties': False, 'oxi_states': True, 'provenance': True, 'charge_density': True, 'eos': False, 'phonon': False, 'insertion_electrodes': False, 'substrates': True}",,,,,,
mp-bwibc,Cr5S8,-0.9606169561538451,0.018103083076923,False,0.0,2.1953543,26,3.834891982991866,447.297739791516,-7.219418421538462,,True,Cm,8,Monoclinic,m,FiM,,"{'materials': True, 'thermo': True, 'xas': True, 'grain_boundaries': False, 'chemenv': True, 'electronic_structure': True, 'absorption': False, 'bandstructure': True, 'dos': True, 'magnetism': True, 'elasticity': False, 'dielectric': False, 'piezoelectric': False, 'surface_properties': False, 'oxi_states': True, 'provenance': True, 'charge_density': True, 'eos': False, 'phonon': False, 'insertion_electrodes': False, 'substrates': True}",,,,,,
mp-crumc,Cr19S30,-0.973726733571427,0.007984626530613001,False,0.0,54.0008475,49,3.73965749614984,865.8132757626477,-7.249845780612244,,True,P-1,2,Triclinic,-1,FM,,"{'materials': True, 'thermo': True, 'xas': False, 'grain_boundaries': False, 'chemenv': True, 'electronic_structure': True, 'absorption': False, 'bandstructure': False, 'dos': False, 'magnetism': True, 'elasticity': False, 'dielectric': False, 'piezoelectric': False, 'surface_properties': False, 'oxi_states': True, 'provenance': True, 'charge_density': True, 'eos': False, 'phonon': False, 'insertion_electrodes': False, 'substrates': False}",,,,,,
mp-cruzq,Cr19S30,-0.9737504082653051,0.007960951836735,False,0.0,53.9988341,49,3.721948798629433,869.9327374315668,-7.249869455306122,,True,P-1,2,Triclinic,-1,FM,,"{'materials': True, 'thermo': True, 'xas': False, 'grain_boundaries': False, 'chemenv': True, 'electronic_structure': True, 'absorption': False, 'bandstructure': False, 'dos': False, 'magnetism': True, 'elasticity': False, 'dielectric': False, 'piezoelectric': False, 'surface_properties': False, 'oxi_states': True, 'provenance': True, 'charge_density': True, 'eos': False, 'phonon': False, 'insertion_electrodes': False, 'substrates': False}",,,,,,
mp-dbmzr,MnS2,-0.49101037170258605,0.30849353500000004,False,0.0,0.1439548,6,2.8051565656160102,140.9669198002631,-10.741480081666667,,True,I-42d,122,Tetragonal,-42m,FM,,"{'materials': True, 'thermo': True, 'xas': False, 'grain_boundaries': False, 'chemenv': True, 'electronic_structure': True, 'absorption': False, 'bandstructure': True, 'dos': True, 'magnetism': True, 'elasticity': False, 'dielectric': False, 'piezoelectric': False, 'surface_properties': False, 'oxi_states': True, 'provenance': True, 'charge_density': True, 'eos': False, 'phonon': False, 'insertion_electrodes': False, 'substrates': True}",,,,,,
mp-ckiih,MnS2,-0.497801395035918,0.301702511666666,False,0.0,7.9916602999999995,12,3.43845986224438,230.0066288133213,-10.748271105,,True,P2_1/c,14,Monoclinic,2/m,FM,icsd-193723,"{'materials': True, 'thermo': True, 'xas': True, 'grain_boundaries': False, 'chemenv': True, 'electronic_structure': True, 'absorption': False, 'bandstructure': True, 'dos': True, 'magnetism': True, 'elasticity': False, 'dielectric': False, 'piezoelectric': False, 'surface_properties': False, 'oxi_states': True, 'provenance': True, 'charge_density': True, 'eos': False, 'phonon': False, 'insertion_electrodes': False, 'substrates': False}",,,,,,
mp-dcxpl,MnS2,-0.7995039067025851,0.0,True,0.0,2.999569499999999,3,3.093657821836562,63.91047481418328,-11.049973616666668,,True,R-3m,166,Trigonal,-3m,FM,,"{'materials': True, 'thermo': True, 'xas': False, 'grain_boundaries': False, 'chemenv': True, 'electronic_structure': True, 'absorption': False, 'bandstructure': True, 'dos': True, 'magnetism': True, 'elasticity': False, 'dielectric': False, 'piezoelectric': False, 'surface_properties': False, 'oxi_states': True, 'provenance': True, 'charge_density': True, 'eos': False, 'phonon': False, 'insertion_electrodes': True, 'substrates': True}",,,,,,
mp-duo,MnS,-1.1258302186476281,0.014528515,False,0.0,1.5000000000000002e-05,4,3.36542574685967,85.85656971957664,-12.48451617,,True,P6_3mc,186,Hexagonal,6mm,AFM,"icsd-643455,icsd-44765","{'materials': True, 'thermo': True, 'xas': True, 'grain_boundaries': False, 'chemenv': True, 'electronic_structure': True, 'absorption': False, 'bandstructure': True, 'dos': True, 'magnetism': True, 'elasticity': True, 'dielectric': False, 'piezoelectric': False, 'surface_properties': False, 'oxi_states': True, 'provenance': True, 'charge_density': True, 'eos': False, 'phonon': False, 'insertion_electrodes': False, 'substrates': True}",,,,,,
mp-cdz,MnS2,-0.68886985253592,0.11063405416666501,False,0.0,4.0159753,12,4.693997497595893,168.48508369035204,-10.939339562500003,,True,Pa-3,205,Cubic,m-3,FM,"icsd-15991,icsd-44373,icsd-36549,icsd-193722,icsd-643452,icsd-36545,icsd-643447,icsd-56015,icsd-36547,icsd-643442,icsd-291504,icsd-291503,icsd-36548,icsd-36546,icsd-643433,icsd-36550","{'materials': True, 'thermo': True, 'xas': True, 'grain_boundaries': False, 'chemenv': True, 'electronic_structure': True, 'absorption': False, 'bandstructure': True, 'dos': True, 'magnetism': True, 'elasticity': False, 'dielectric': False, 'piezoelectric': False, 'surface_properties': False, 'oxi_states': True, 'provenance': True, 'charge_density': True, 'eos': False, 'phonon': False, 'insertion_electrodes': False, 'substrates': True}",,,,,,
mp-cqp,MnS,-1.128444258647629,0.011914474999999002,False,0.0,0.288333399999999,2,4.773501671712195,30.265403695530186,-12.48713021,,True,F-43m,216,Cubic,-43m,FM,"icsd-76205,icsd-643454","{'materials': True, 'thermo': True, 'xas': True, 'grain_boundaries': False, 'chemenv': True, 'electronic_structure': True, 'absorption': False, 'bandstructure': True, 'dos': True, 'magnetism': True, 'elasticity': True, 'dielectric': False, 'piezoelectric': False, 'surface_properties': False, 'oxi_states': True, 'provenance': True, 'charge_density': True, 'eos': False, 'phonon': False, 'insertion_electrodes': False, 'substrates': True}",,,,,,
mp-bfrtl,MnS,-0.705955648647629,0.434403084999999,False,0.0,3.2864285,2,4.854024954333289,29.763331769995265,-12.0646416,,True,Pm-3m,221,Cubic,m-3m,FM,icsd-44764,"{'materials': True, 'thermo': True, 'xas': True, 'grain_boundaries': False, 'chemenv': True, 'electronic_structure': True, 'absorption': False, 'bandstructure': True, 'dos': True, 'magnetism': True, 'elasticity': False, 'dielectric': False, 'piezoelectric': False, 'surface_properties': False, 'oxi_states': True, 'provenance': True, 'charge_density': True, 'eos': False, 'phonon': False, 'insertion_electrodes': False, 'substrates': True}",,,,,,
mp-dbl,MnS,-1.140358733647628,0.0,True,0.0,0.0,4,4.19181053250963,68.93057499388583,-12.499044685,,True,Fm-3m,225,Cubic,-3m,AFM,"icsd-603118,icsd-643443,icsd-643439,icsd-643445,icsd-158647,icsd-158648,icsd-643436,icsd-643437,icsd-643444,icsd-643446,icsd-643450,icsd-643451,icsd-158651,icsd-158652,icsd-643453,icsd-643434,icsd-41331,icsd-76204,icsd-643435,icsd-158650,icsd-18007,icsd-158649,icsd-643456,icsd-643438","{'materials': True, 'thermo': True, 'xas': True, 'grain_boundaries': False, 'chemenv': True, 'electronic_structure': True, 'absorption': False, 'bandstructure': True, 'dos': True, 'magnetism': True, 'elasticity': True, 'dielectric': False, 'piezoelectric': False, 'surface_properties': False, 'oxi_states': True, 'provenance': True, 'charge_density': True, 'eos': False, 'phonon': False, 'insertion_electrodes': False, 'substrates': True}",,,,,,
mp-dawjk,MnS2,-0.797934207535919,0.001569699166665,False,0.0,11.9953575,12,3.546117110904696,223.02381350935656,-11.048403917500002,,True,Fd-3m,227,Cubic,m-3m,FM,,"{'materials': True, 'thermo': True, 'xas': False, 'grain_boundaries': False, 'chemenv': True, 'electronic_structure': True, 'absorption': False, 'bandstructure': False, 'dos': True, 'magnetism': True, 'elasticity': False, 'dielectric': False, 'piezoelectric': False, 'surface_properties': False, 'oxi_states': True, 'provenance': True, 'charge_density': True, 'eos': False, 'phonon': False, 'insertion_electrodes': True, 'substrates': True}",,,,,,
mp-cfzcu,MnS2,-0.7663607583692521,0.033143148333333004,False,0.0,1.968753099999999,6,4.668836558781954,84.69653534317291,-11.016830468333334,,True,Pnnm,58,Orthorhombic,mmm,FM,icsd-643441,"{'materials': True, 'thermo': True, 'xas': False, 'grain_boundaries': False, 'chemenv': True, 'electronic_structure': True, 'absorption': False, 'bandstructure': True, 'dos': True, 'magnetism': True, 'elasticity': True, 'dielectric': False, 'piezoelectric': False, 'surface_properties': False, 'oxi_states': True, 'provenance': True, 'charge_density': True, 'eos': False, 'phonon': False, 'insertion_electrodes': True, 'substrates': True}",,,,,,
mp-cdljf,Mn2S3,-0.903138795480602,0.032707042000001005,False,0.0,16.0,10,3.794306933412436,180.36974944148466,-11.596895002,,True,R-3c,167,Trigonal,-3m,FM,,"{'materials': True, 'thermo': True, 'xas': True, 'grain_boundaries': False, 'chemenv': True, 'electronic_structure': True, 'absorption': False, 'bandstructure': True, 'dos': True, 'magnetism': True, 'elasticity': False, 'dielectric': False, 'piezoelectric': False, 'surface_properties': False, 'oxi_states': True, 'provenance': True, 'charge_density': True, 'eos': False, 'phonon': False, 'insertion_electrodes': True, 'substrates': True}",,,,,,
mp-cdmyx,Mn3S,-0.17790633078933002,0.39227303603448305,False,0.0,5.3905089,4,7.134536273194737,45.82294945982847,-13.198916644224138,,True,Pm-3m,221,Cubic,m-3m,FM,,"{'materials': True, 'thermo': True, 'xas': True, 'grain_boundaries': False, 'chemenv': True, 'electronic_structure': True, 'absorption': False, 'bandstructure': True, 'dos': True, 'magnetism': True, 'elasticity': True, 'dielectric': False, 'piezoelectric': False, 'surface_properties': False, 'oxi_states': True, 'provenance': True, 'charge_density': True, 'eos': False, 'phonon': False, 'insertion_electrodes': False, 'substrates': True}",,,,,,
mp-dastz,FeS2,-0.482783109999998,0.36469386000000004,False,0.0,0.092321099999999,6,3.009686400745283,132.38799528482548,-6.064388654999999,,False,I-42d,122,Tetragonal,-42m,NM,,"{'materials': True, 'thermo': True, 'xas': False, 'grain_boundaries': False, 'chemenv': True, 'electronic_structure': True, 'absorption': False, 'bandstructure': True, 'dos': True, 'magnetism': True, 'elasticity': False, 'dielectric': False, 'piezoelectric': False, 'surface_properties': False, 'oxi_states': True, 'provenance': True, 'charge_density': True, 'eos': False, 'phonon': False, 'insertion_electrodes': False, 'substrates': True}",,,,,,
mp-bctvn,FeS,-0.7574410312499991,0.0,True,0.0,1.8e-06,4,4.294013387059193,67.99139927450518,-7.0611504925,,False,P4/nmm,129,Tetragonal,4/mmm,NM,"icsd-633302,icsd-182249,icsd-182251,icsd-42977,icsd-43391,icsd-182250,icsd-81087,icsd-238590","{'materials': True, 'thermo': True, 'xas': True, 'grain_boundaries': False, 'chemenv': True, 'electronic_structure': True, 'absorption': False, 'bandstructure': True, 'dos': True, 'magnetism': True, 'elasticity': True, 'dielectric': False, 'piezoelectric': False, 'surface_properties': False, 'oxi_states': True, 'provenance': True, 'charge_density': True, 'eos': False, 'phonon': False, 'insertion_electrodes': False, 'substrates': True}",,,,,,