material_id,formula_pretty,formation_energy_per_atom,energy_above_hull,is_stable,band_gap,total_magnetization,nsites,density,volume,energy_per_atom,e_total,is_magnetic,space_group_symbol,space_group_number,crystal_system,point_group,ordering,icsd_ids,has_props,lattice_a,lattice_b,lattice_c,lattice_alpha,lattice_beta,lattice_gamma
mp-bwjkr,FeS2,-0.409372138333332,0.43810483166666603,False,0.0,10.5541009,12,3.804287438394601,209.4722627997916,-5.990977683333334,,True,P2/c,13,Monoclinic,2/m,FM,,"{'materials': True, 'thermo': True, 'xas': False, 'grain_boundaries': False, 'chemenv': True, 'electronic_structure': True, 'absorption': False, 'bandstructure': True, 'dos': True, 'magnetism': True, 'elasticity': False, 'dielectric': False, 'piezoelectric': False, 'surface_properties': False, 'oxi_states': True, 'provenance': True, 'charge_density': True, 'eos': False, 'phonon': False, 'insertion_electrodes': False, 'substrates': True}",,,,,,
mp-bhng,FeS,-0.591536155416665,0.16590487583333302,False,0.0349,0.0009991,24,5.9924168081012334,292.3254386726697,-6.895245616666667,,False,P2_1/c,14,Monoclinic,2/m,NM,"icsd-89380,icsd-89381,icsd-87501,icsd-87500","{'materials': True, 'thermo': True, 'xas': True, 'grain_boundaries': False, 'chemenv': True, 'electronic_structure': True, 'absorption': False, 'bandstructure': True, 'dos': True, 'magnetism': True, 'elasticity': False, 'dielectric': False, 'piezoelectric': False, 'surface_properties': False, 'oxi_states': True, 'provenance': True, 'charge_density': True, 'eos': False, 'phonon': False, 'insertion_electrodes': False, 'substrates': True}",,,,,,
mp-bwiab,FeS,-0.48756782874999804,0.2698732025,False,0.0,1.9175223,4,5.682395484413268,51.37903186964778,-6.79127729,,True,P-3m1,164,Trigonal,-3m,FiM,,"{'materials': True, 'thermo': True, 'xas': True, 'grain_boundaries': False, 'chemenv': True, 'electronic_structure': True, 'absorption': False, 'bandstructure': True, 'dos': True, 'magnetism': True, 'elasticity': False, 'dielectric': False, 'piezoelectric': False, 'surface_properties': False, 'oxi_states': True, 'provenance': True, 'charge_density': True, 'eos': False, 'phonon': False, 'insertion_electrodes': False, 'substrates': True}",,,,,,
mp-dbgvo,FeS2,-0.5968370916666651,0.250639878333333,False,0.0,7.418982,12,3.936361448436063,202.4439850100527,-6.178442636666666,,True,R-3m,166,Trigonal,-3m,FM,,"{'materials': True, 'thermo': True, 'xas': False, 'grain_boundaries': False, 'chemenv': True, 'electronic_structure': True, 'absorption': False, 'bandstructure': False, 'dos': True, 'magnetism': True, 'elasticity': False, 'dielectric': False, 'piezoelectric': False, 'surface_properties': False, 'oxi_states': True, 'provenance': True, 'charge_density': True, 'eos': False, 'phonon': False, 'insertion_electrodes': True, 'substrates': True}",,,,,,
mp-ddjqe,FeS2,-0.642795531666665,0.20468143833333302,False,0.0,1.8100384999999992,3,3.109980701479322,64.05929606591147,-6.224401076666666,,True,R-3m,166,Trigonal,-3m,FM,,"{'materials': True, 'thermo': True, 'xas': False, 'grain_boundaries': False, 'chemenv': True, 'electronic_structure': True, 'absorption': False, 'bandstructure': True, 'dos': True, 'magnetism': True, 'elasticity': False, 'dielectric': False, 'piezoelectric': False, 'surface_properties': False, 'oxi_states': True, 'provenance': True, 'charge_density': True, 'eos': False, 'phonon': False, 'insertion_electrodes': False, 'substrates': True}",,,,,,
mp-bjbyq,FeS,-0.48473417749999903,0.27270685374999903,False,0.0,14.4966495,16,5.543554670583626,210.66337109569793,-6.78844363875,,True,P6_3mc,186,Hexagonal,6mm,FM,"icsd-87503,icsd-87502,icsd-53528","{'materials': True, 'thermo': True, 'xas': True, 'grain_boundaries': False, 'chemenv': True, 'electronic_structure': True, 'absorption': False, 'bandstructure': True, 'dos': True, 'magnetism': True, 'elasticity': False, 'dielectric': False, 'piezoelectric': False, 'surface_properties': False, 'oxi_states': True, 'provenance': True, 'charge_density': True, 'eos': False, 'phonon': False, 'insertion_electrodes': False, 'substrates': True}",,,,,,
mp-ecx,FeS,-0.45790946083333206,0.299531570416666,False,0.0,26.329077,24,5.094471969029963,343.85033086583445,-6.7616189220833345,,True,P-62c,190,Hexagonal,-6m2,FM,"icsd-51002,icsd-291010,icsd-43694,icsd-51001,icsd-68846,icsd-68845,icsd-53527,icsd-51003,icsd-35006,icsd-31963,icsd-291009,icsd-633296,icsd-35005,icsd-291011,icsd-657060,icsd-156619,icsd-291013,icsd-44752,icsd-156618,icsd-291012,icsd-35007,icsd-156620","{'materials': True, 'thermo': True, 'xas': True, 'grain_boundaries': False, 'chemenv': True, 'electronic_structure': True, 'absorption': False, 'bandstructure': True, 'dos': True, 'magnetism': True, 'elasticity': False, 'dielectric': False, 'piezoelectric': False, 'surface_properties': False, 'oxi_states': True, 'provenance': True, 'charge_density': True, 'eos': False, 'phonon': False, 'insertion_electrodes': False, 'substrates': True}",,,,,,
mp-dct,FeS,-0.441707896249998,0.315733135,False,0.0,5.1154771,4,5.072416721146503,57.55756964376974,-6.7454173575,,True,P6_3/mmc,194,Hexagonal,6/mmm,FM,"icsd-29302,icsd-68848,icsd-53526,icsd-633265,icsd-35008,icsd-68847","{'materials': True, 'thermo': True, 'xas': True, 'grain_boundaries': False, 'chemenv': True, 'electronic_structure': True, 'absorption': False, 'bandstructure': True, 'dos': True, 'magnetism': True, 'elasticity': False, 'dielectric': False, 'piezoelectric': False, 'surface_properties': False, 'oxi_states': True, 'provenance': True, 'charge_density': True, 'eos': False, 'phonon': False, 'insertion_electrodes': False, 'substrates': True}",,,,,,
mp-is,FeS2,-0.8374183041666641,0.010058665833334,False,0.45719999999999905,0.0,12,5.069733496472607,157.18630942155002,-6.419023849166666,28.227410893333328,False,Pa-3,205,Cubic,m-3,NM,"icsd-316,icsd-10422,icsd-633293,icsd-53529,icsd-53935,icsd-656511,icsd-633288,icsd-633254,icsd-633273,icsd-633270,icsd-633289,icsd-633274,icsd-633287,icsd-43716,icsd-41995,icsd-15012,icsd-109377,icsd-52372","{'materials': True, 'thermo': True, 'xas': True, 'grain_boundaries': False, 'chemenv': True, 'electronic_structure': True, 'absorption': False, 'bandstructure': True, 'dos': True, 'magnetism': True, 'elasticity': True, 'dielectric': True, 'piezoelectric': False, 'surface_properties': False, 'oxi_states': True, 'provenance': True, 'charge_density': True, 'eos': False, 'phonon': False, 'insertion_electrodes': False, 'substrates': True}",,,,,,
mp-dbxvm,FeS2,-0.5963047691666651,0.251172200833333,False,0.0,7.6320138,12,3.966615774713373,200.8998963654157,-6.177910314166667,,True,Fd-3m,227,Cubic,m-3m,FM,,"{'materials': True, 'thermo': True, 'xas': False, 'grain_boundaries': False, 'chemenv': True, 'electronic_structure': True, 'absorption': False, 'bandstructure': False, 'dos': True, 'magnetism': True, 'elasticity': False, 'dielectric': False, 'piezoelectric': False, 'surface_properties': False, 'oxi_states': True, 'provenance': True, 'charge_density': True, 'eos': False, 'phonon': False, 'insertion_electrodes': True, 'substrates': True}",,,,,,
mp-bjahy,FeS2,-0.408898324999999,0.43857864499999905,False,0.0,10.7546113,12,3.728085918353034,213.75384460382423,-5.99050387,,True,Pcca,54,Orthorhombic,mmm,FM,,"{'materials': True, 'thermo': True, 'xas': False, 'grain_boundaries': False, 'chemenv': True, 'electronic_structure': True, 'absorption': False, 'bandstructure': True, 'dos': True, 'magnetism': True, 'elasticity': False, 'dielectric': False, 'piezoelectric': False, 'surface_properties': False, 'oxi_states': True, 'provenance': True, 'charge_density': True, 'eos': False, 'phonon': False, 'insertion_electrodes': False, 'substrates': True}",,,,,,
mp-cgo,FeS2,-0.8474769699999981,0.0,True,0.8770000000000001,0.0,6,4.9392380950398245,80.66959748929806,-6.429082515,27.484519476666666,False,Pnnm,58,Orthorhombic,mmm,NM,"icsd-633275,icsd-633304,icsd-109374,icsd-42415,icsd-42416,icsd-42726,icsd-633255,icsd-26756","{'materials': True, 'thermo': True, 'xas': True, 'grain_boundaries': False, 'chemenv': True, 'electronic_structure': True, 'absorption': True, 'bandstructure': True, 'dos': True, 'magnetism': True, 'elasticity': True, 'dielectric': True, 'piezoelectric': False, 'surface_properties': False, 'oxi_states': True, 'provenance': True, 'charge_density': True, 'eos': False, 'phonon': True, 'insertion_electrodes': False, 'substrates': True}",,,,,,
mp-bfrm,FeS,-0.5280524912499981,0.22938854000000003,False,0.0,3e-07,8,6.097107468121861,95.76868382788909,-6.8317619525,,False,Pnma,62,Orthorhombic,mmm,NM,"icsd-87499,icsd-291014,icsd-633259,icsd-291017,icsd-35010,icsd-633260,icsd-35009,icsd-291016,icsd-291015","{'materials': True, 'thermo': True, 'xas': True, 'grain_boundaries': False, 'chemenv': True, 'electronic_structure': True, 'absorption': False, 'bandstructure': True, 'dos': True, 'magnetism': True, 'elasticity': False, 'dielectric': False, 'piezoelectric': False, 'surface_properties': False, 'oxi_states': True, 'provenance': True, 'charge_density': True, 'eos': False, 'phonon': False, 'insertion_electrodes': False, 'substrates': True}",,,,,,
mp-ccfdf,Fe2S3,-0.6915412294999981,0.11992136500000002,False,0.0,3.7910432,10,4.9040509576429745,140.78204604385044,-6.561988341,,True,R-3c,167,Trigonal,-3m,FM,,"{'materials': True, 'thermo': True, 'xas': True, 'grain_boundaries': False, 'chemenv': True, 'electronic_structure': True, 'absorption': False, 'bandstructure': True, 'dos': True, 'magnetism': True, 'elasticity': False, 'dielectric': False, 'piezoelectric': False, 'surface_properties': False, 'oxi_states': True, 'provenance': True, 'charge_density': True, 'eos': False, 'phonon': False, 'insertion_electrodes': True, 'substrates': True}",,,,,,
mp-bmyuj,Fe2S,-0.206368987738092,0.298591699761906,False,0.0,27.0404812,21,6.39800112631646,261.1715005426415,-7.232182365238094,,True,Cm,8,Monoclinic,m,FM,,"{'materials': True, 'thermo': True, 'xas': True, 'grain_boundaries': False, 'chemenv': True, 'electronic_structure': True, 'absorption': False, 'bandstructure': False, 'dos': False, 'magnetism': True, 'elasticity': False, 'dielectric': False, 'piezoelectric': False, 'surface_properties': False, 'oxi_states': True, 'provenance': True, 'charge_density': True, 'eos': False, 'phonon': False, 'insertion_electrodes': False, 'substrates': True}",,,,,,
mp-bwlkn,Fe2S,-0.17731581011904501,0.32764487738095305,False,0.0,24.8741179,21,6.424253454912277,260.10423878215397,-7.203129187619047,,True,Cm,8,Monoclinic,m,FM,,"{'materials': True, 'thermo': True, 'xas': True, 'grain_boundaries': False, 'chemenv': True, 'electronic_structure': True, 'absorption': False, 'bandstructure': False, 'dos': False, 'magnetism': True, 'elasticity': False, 'dielectric': False, 'piezoelectric': False, 'surface_properties': False, 'oxi_states': True, 'provenance': True, 'charge_density': True, 'eos': False, 'phonon': False, 'insertion_electrodes': False, 'substrates': True}",,,,,,
mp-bwjlo,Fe3S4,-0.6195834821428551,0.17644438,False,0.0,0.0049022,14,4.746843324145993,206.94980628766177,-6.613819836428571,,False,C2/m,12,Monoclinic,2/m,NM,,"{'materials': True, 'thermo': True, 'xas': True, 'grain_boundaries': False, 'chemenv': True, 'electronic_structure': True, 'absorption': False, 'bandstructure': True, 'dos': True, 'magnetism': True, 'elasticity': False, 'dielectric': False, 'piezoelectric': False, 'surface_properties': False, 'oxi_states': True, 'provenance': True, 'charge_density': True, 'eos': False, 'phonon': False, 'insertion_electrodes': False, 'substrates': True}",,,,,,
mp-pbw,Fe3S4,-0.424486235714284,0.37154162642857,False,0.0,3.8132306,7,4.743995205511187,103.53702563491949,-6.418722590000001,,True,R3m,160,Trigonal,3m,FM,icsd-44885,"{'materials': True, 'thermo': True, 'xas': True, 'grain_boundaries': False, 'chemenv': True, 'electronic_structure': True, 'absorption': False, 'bandstructure': True, 'dos': True, 'magnetism': True, 'elasticity': False, 'dielectric': False, 'piezoelectric': False, 'surface_properties': False, 'oxi_states': True, 'provenance': True, 'charge_density': True, 'eos': False, 'phonon': False, 'insertion_electrodes': False, 'substrates': True}",,,,,,
mp-kmy,Fe3S4,-0.5818713328571411,0.21415652928571302,False,0.0,1.448204,7,4.565297262223808,107.58974169530593,-6.5761076871428585,,True,R-3m,166,Trigonal,-3m,FiM,icsd-42537,"{'materials': True, 'thermo': True, 'xas': False, 'grain_boundaries': False, 'chemenv': True, 'electronic_structure': True, 'absorption': False, 'bandstructure': True, 'dos': True, 'magnetism': True, 'elasticity': False, 'dielectric': False, 'piezoelectric': False, 'surface_properties': False, 'oxi_states': True, 'provenance': True, 'charge_density': True, 'eos': False, 'phonon': False, 'insertion_electrodes': False, 'substrates': True}",,,,,,
mp-bwjky,Fe3S4,-0.5899503142857121,0.20607754785714302,False,0.0,0.178499599999999,14,4.556134474256673,215.61222829582178,-6.584186668571428,,True,R-3m,166,Trigonal,-3m,FM,,"{'materials': True, 'thermo': True, 'xas': True, 'grain_boundaries': False, 'chemenv': True, 'electronic_structure': True, 'absorption': False, 'bandstructure': True, 'dos': True, 'magnetism': True, 'elasticity': False, 'dielectric': False, 'piezoelectric': False, 'surface_properties': False, 'oxi_states': True, 'provenance': True, 'charge_density': False, 'eos': False, 'phonon': False, 'insertion_electrodes': False, 'substrates': True}",,,,,,
mp-cpkav,Fe3S,0.016260151875,0.39498066749999905,False,0.0,16.5869201,8,6.7380176757661125,98.38015085220889,-7.370605183749999,,True,P6_3/mmc,194,Hexagonal,6/mmm,FM,,"{'materials': True, 'thermo': True, 'xas': False, 'grain_boundaries': False, 'chemenv': True, 'electronic_structure': True, 'absorption': False, 'bandstructure': True, 'dos': True, 'magnetism': True, 'elasticity': False, 'dielectric': False, 'piezoelectric': False, 'surface_properties': False, 'oxi_states': True, 'provenance': True, 'charge_density': True, 'eos': False, 'phonon': False, 'insertion_electrodes': False, 'substrates': False}",,,,,,
mp-bfvn,Fe3S4,-0.659794203571426,0.13623365857142902,False,0.0,4.0948833,14,4.6077169403261635,213.1984926878682,-6.654030557857142,,True,Fd-3m,227,Cubic,m-3m,FiM,"icsd-633292,icsd-42536,icsd-42535,icsd-194587","{'materials': True, 'thermo': True, 'xas': True, 'grain_boundaries': False, 'chemenv': True, 'electronic_structure': True, 'absorption': False, 'bandstructure': True, 'dos': True, 'magnetism': True, 'elasticity': False, 'dielectric': False, 'piezoelectric': False, 'surface_properties': False, 'oxi_states': True, 'provenance': True, 'charge_density': True, 'eos': False, 'phonon': False, 'insertion_electrodes': False, 'substrates': True}",,,,,,
mp-cpqya,Fe3S,-0.215270754999998,0.16344976062500002,False,0.0,25.7566429,16,7.129732576305925,185.95008670863126,-7.602136090625,,True,Pnma,62,Orthorhombic,mmm,FM,icsd-633291,"{'materials': True, 'thermo': True, 'xas': True, 'grain_boundaries': False, 'chemenv': True, 'electronic_structure': True, 'absorption': False, 'bandstructure': False, 'dos': False, 'magnetism': True, 'elasticity': False, 'dielectric': False, 'piezoelectric': False, 'surface_properties': False, 'oxi_states': True, 'provenance': True, 'charge_density': True, 'eos': False, 'phonon': False, 'insertion_electrodes': False, 'substrates': False}",,,,,,
mp-bwjtx,Fe4S5,-0.7257425258333321,0.061710484999999,False,0.0,0.0270683,18,2.023970641848148,629.6110520337843,-6.7887506816666665,,True,P2,3,Monoclinic,2,FiM,,"{'materials': True, 'thermo': True, 'xas': True, 'grain_boundaries': False, 'chemenv': True, 'electronic_structure': True, 'absorption': False, 'bandstructure': False, 'dos': False, 'magnetism': True, 'elasticity': False, 'dielectric': False, 'piezoelectric': False, 'surface_properties': False, 'oxi_states': True, 'provenance': True, 'charge_density': True, 'eos': False, 'phonon': False, 'insertion_electrodes': False, 'substrates': True}",,,,,,
mp-bwjnn,Fe4S5,-0.7252702374999991,0.062182773333333004,False,0.0,0.022276,18,2.030805711129187,627.4919743016429,-6.788278393333333,,True,P4,75,Tetragonal,4,FiM,,"{'materials': True, 'thermo': True, 'xas': True, 'grain_boundaries': False, 'chemenv': True, 'electronic_structure': True, 'absorption': False, 'bandstructure': False, 'dos': False, 'magnetism': True, 'elasticity': False, 'dielectric': False, 'piezoelectric': False, 'surface_properties': False, 'oxi_states': True, 'provenance': True, 'charge_density': True, 'eos': False, 'phonon': False, 'insertion_electrodes': False, 'substrates': True}",,,,,,
mp-bxoan,Fe4S5,-0.7235869908333321,0.06386601999999901,False,0.0,0.0710819,18,1.9902621147980881,640.2746028398299,-6.7865951466666665,,True,P4/n,85,Tetragonal,4/m,AFM,,"{'materials': True, 'thermo': True, 'xas': False, 'grain_boundaries': False, 'chemenv': True, 'electronic_structure': True, 'absorption': False, 'bandstructure': True, 'dos': True, 'magnetism': True, 'elasticity': False, 'dielectric': False, 'piezoelectric': False, 'surface_properties': False, 'oxi_states': True, 'provenance': True, 'charge_density': False, 'eos': False, 'phonon': False, 'insertion_electrodes': False, 'substrates': False}",,,,,,
mp-bmznc,Fe7S8,-0.608776399333332,0.16667181966666703,False,0.0,6.3519225,30,5.488672397774192,391.7490542959532,-6.768065077333333,,True,P2_1/c,14,Monoclinic,2/m,FiM,,"{'materials': True, 'thermo': True, 'xas': False, 'grain_boundaries': False, 'chemenv': True, 'electronic_structure': True, 'absorption': False, 'bandstructure': False, 'dos': False, 'magnetism': True, 'elasticity': False, 'dielectric': False, 'piezoelectric': False, 'surface_properties': False, 'oxi_states': True, 'provenance': True, 'charge_density': True, 'eos': False, 'phonon': False, 'insertion_electrodes': False, 'substrates': True}",,,,,,
mp-bgce,Fe7S8,-0.6097666619999991,0.165681557,False,0.0,18.0541715,45,5.347088959315148,603.1830321681432,-6.7690553399999995,,True,P3_1,144,Trigonal,3,FM,icsd-9146,"{'materials': True, 'thermo': True, 'xas': True, 'grain_boundaries': False, 'chemenv': True, 'electronic_structure': True, 'absorption': False, 'bandstructure': False, 'dos': False, 'magnetism': True, 'elasticity': False, 'dielectric': False, 'piezoelectric': False, 'surface_properties': False, 'oxi_states': True, 'provenance': True, 'charge_density': False, 'eos': False, 'phonon': False, 'insertion_electrodes': False, 'substrates': True}",,,,,,
mp-bewys,Fe7S8,-0.649051440999998,0.12639677800000101,False,0.0,7.8210907,30,5.515879720112132,389.8167346413113,-6.808340118999999,,True,C2/c,15,Monoclinic,2/m,FM,"icsd-42491,icsd-151766,icsd-151765","{'materials': True, 'thermo': True, 'xas': True, 'grain_boundaries': False, 'chemenv': True, 'electronic_structure': True, 'absorption': False, 'bandstructure': True, 'dos': True, 'magnetism': True, 'elasticity': False, 'dielectric': False, 'piezoelectric': False, 'surface_properties': False, 'oxi_states': True, 'provenance': True, 'charge_density': True, 'eos': False, 'phonon': False, 'insertion_electrodes': False, 'substrates': True}",,,,,,
mp-bfrdj,Fe7S8,-0.6490579146666651,0.126390304333334,False,0.0,9.0839384,45,5.522181407054188,584.0578376567743,-6.808346592666666,,True,P3_121,152,Trigonal,32,FM,icsd-8064,"{'materials': True, 'thermo': True, 'xas': True, 'grain_boundaries': False, 'chemenv': True, 'electronic_structure': True, 'absorption': False, 'bandstructure': False, 'dos': False, 'magnetism': True, 'elasticity': False, 'dielectric': False, 'piezoelectric': False, 'surface_properties': False, 'oxi_states': True, 'provenance': True, 'charge_density': True, 'eos': False, 'phonon': False, 'insertion_electrodes': False, 'substrates': True}",,,,,,