material_id,formula_pretty,formation_energy_per_atom,energy_above_hull,is_stable,band_gap,total_magnetization,nsites,density,volume,energy_per_atom,e_total,is_magnetic,space_group_symbol,space_group_number,crystal_system,point_group,ordering,icsd_ids,has_props,lattice_a,lattice_b,lattice_c,lattice_alpha,lattice_beta,lattice_gamma
mp-cmi,CaS,-2.436088926406249,0.0,True,2.3819,0.0,2,2.5810342007468723,46.414057530527266,-9.97225439,12.091625876473438,False,Fm-3m,225,Cubic,m-3m,NM,"icsd-619529,icsd-619534,icsd-186785,icsd-619537,icsd-603165,icsd-30236,icsd-619533,icsd-53940,icsd-619527,icsd-52784,icsd-619530,icsd-28902,icsd-41956,icsd-619528,icsd-619540,icsd-619538,icsd-60200","{'materials': True, 'thermo': True, 'xas': True, 'grain_boundaries': False, 'chemenv': True, 'electronic_structure': True, 'absorption': True, 'bandstructure': True, 'dos': True, 'magnetism': True, 'elasticity': True, 'dielectric': True, 'piezoelectric': False, 'surface_properties': False, 'oxi_states': True, 'provenance': True, 'charge_density': True, 'eos': False, 'phonon': True, 'insertion_electrodes': True, 'substrates': True}",,,,,,
mp-cxa,SrS2,-1.593265490208332,0.023394710729169002,False,1.2822,0.0,6,3.489948853995782,144.40716119265772,-11.997843998333332,,False,I4/mcm,140,Tetragonal,4/mmm,NM,"icsd-642,icsd-23640","{'materials': True, 'thermo': True, 'xas': True, 'grain_boundaries': False, 'chemenv': True, 'electronic_structure': True, 'absorption': False, 'bandstructure': True, 'dos': True, 'magnetism': True, 'elasticity': False, 'dielectric': False, 'piezoelectric': False, 'surface_properties': False, 'oxi_states': True, 'provenance': True, 'charge_density': True, 'eos': False, 'phonon': False, 'insertion_electrodes': False, 'substrates': True}",,,,,,
mp-pst,SrS,-2.125360496406252,0.29962980499999803,False,1.7896,0.0,2,4.025755566163782,49.367532359995124,-13.715209645000002,,False,Pm-3m,221,Cubic,m-3m,NM,"icsd-164144,icsd-52111","{'materials': True, 'thermo': True, 'xas': True, 'grain_boundaries': False, 'chemenv': True, 'electronic_structure': True, 'absorption': False, 'bandstructure': True, 'dos': True, 'magnetism': True, 'elasticity': True, 'dielectric': False, 'piezoelectric': False, 'surface_properties': False, 'oxi_states': True, 'provenance': True, 'charge_density': True, 'eos': False, 'phonon': True, 'insertion_electrodes': False, 'substrates': True}",,,,,,
mp-bpv,SrS,-2.42499030140625,0.0,True,2.497,0.0,2,3.5934057106330632,55.30731406084619,-14.01483945,11.869142580037469,False,Fm-3m,225,Cubic,m-3m,NM,"icsd-651059,icsd-164143,icsd-651057,icsd-182724,icsd-53941,icsd-651061,icsd-651068,icsd-290055,icsd-30239,icsd-28900,icsd-249177,icsd-659132,icsd-651054,icsd-52112,icsd-651056,icsd-651060,icsd-651062","{'materials': True, 'thermo': True, 'xas': True, 'grain_boundaries': False, 'chemenv': True, 'electronic_structure': True, 'absorption': True, 'bandstructure': True, 'dos': True, 'magnetism': True, 'elasticity': True, 'dielectric': True, 'piezoelectric': False, 'surface_properties': False, 'oxi_states': True, 'provenance': True, 'charge_density': True, 'eos': False, 'phonon': True, 'insertion_electrodes': False, 'substrates': True}",,,,,,
mp-btf,SrS3,-1.180148172109374,0.032346978593750006,False,1.093099999999999,0.0,8,3.022178550107542,201.99467600365136,-10.99209136,19.40863759666667,False,Aea2,41,Orthorhombic,mm2,NM,icsd-23638,"{'materials': True, 'thermo': True, 'xas': True, 'grain_boundaries': False, 'chemenv': True, 'electronic_structure': True, 'absorption': False, 'bandstructure': True, 'dos': True, 'magnetism': True, 'elasticity': False, 'dielectric': True, 'piezoelectric': True, 'surface_properties': False, 'oxi_states': True, 'provenance': True, 'charge_density': True, 'eos': False, 'phonon': False, 'insertion_electrodes': False, 'substrates': True}",,,,,,
mp-jf,BaS3,-1.4342925506249982,0.0,True,1.391299999999999,0.0,8,3.80619643432229,203.75848204461352,-5.01708457,13.623316369999998,False,P-42_1m,113,Tetragonal,-42m,NM,"icsd-23637,icsd-70059","{'materials': True, 'thermo': True, 'xas': True, 'grain_boundaries': False, 'chemenv': True, 'electronic_structure': True, 'absorption': True, 'bandstructure': True, 'dos': True, 'magnetism': True, 'elasticity': True, 'dielectric': True, 'piezoelectric': True, 'surface_properties': False, 'oxi_states': True, 'provenance': True, 'charge_density': True, 'eos': False, 'phonon': True, 'insertion_electrodes': False, 'substrates': True}",,,,,,
mp-bai,BaS2,-1.7528733849999991,0.0,True,1.598199999999999,0.0,6,3.693656366723054,181.1360806348224,-5.150796840000001,10.303238296642716,False,C2/c,15,Monoclinic,2/m,NM,"icsd-42134,icsd-23639,icsd-2004","{'materials': True, 'thermo': True, 'xas': True, 'grain_boundaries': False, 'chemenv': True, 'electronic_structure': True, 'absorption': False, 'bandstructure': True, 'dos': True, 'magnetism': True, 'elasticity': False, 'dielectric': True, 'piezoelectric': False, 'surface_properties': False, 'oxi_states': True, 'provenance': True, 'charge_density': True, 'eos': False, 'phonon': True, 'insertion_electrodes': False, 'substrates': True}",,,,,,
mp-bfqya,BaS3,-1.390724586249999,0.043567964374998006,False,1.0473,0.0,16,3.5247779945349933,440.0531375443088,-4.973516605625001,13.697308956666665,False,P2_12_12,18,Orthorhombic,222,NM,icsd-26765,"{'materials': True, 'thermo': True, 'xas': True, 'grain_boundaries': False, 'chemenv': True, 'electronic_structure': True, 'absorption': False, 'bandstructure': True, 'dos': True, 'magnetism': True, 'elasticity': False, 'dielectric': True, 'piezoelectric': True, 'surface_properties': False, 'oxi_states': True, 'provenance': True, 'charge_density': True, 'eos': False, 'phonon': False, 'insertion_electrodes': False, 'substrates': True}",,,,,,
mp-cfs,BaS,-2.329565223749999,0.0,True,2.1488,0.0,2,4.190346371817915,67.12620118023261,-5.35775155,14.953045706679056,False,Fm-3m,225,Cubic,m-3m,NM,"icsd-616059,icsd-52690,icsd-616052,icsd-30240,icsd-616053,icsd-616056,icsd-53942","{'materials': True, 'thermo': True, 'xas': True, 'grain_boundaries': False, 'chemenv': True, 'electronic_structure': True, 'absorption': True, 'bandstructure': True, 'dos': True, 'magnetism': True, 'elasticity': True, 'dielectric': True, 'piezoelectric': False, 'surface_properties': False, 'oxi_states': True, 'provenance': True, 'charge_density': True, 'eos': True, 'phonon': True, 'insertion_electrodes': False, 'substrates': True}",,,,,,
mp-bqwo,Ba2S3,-1.9196869674999992,0.063863152999999,False,1.2985,0.0011439,10,4.10595871636164,299.9588134462406,-5.169715571,,False,I4_1md,109,Tetragonal,4mm,NM,icsd-70058,"{'materials': True, 'thermo': True, 'xas': True, 'grain_boundaries': False, 'chemenv': True, 'electronic_structure': True, 'absorption': False, 'bandstructure': True, 'dos': True, 'magnetism': True, 'elasticity': True, 'dielectric': False, 'piezoelectric': False, 'surface_properties': False, 'oxi_states': True, 'provenance': True, 'charge_density': True, 'eos': False, 'phonon': False, 'insertion_electrodes': False, 'substrates': True}",,,,,,
mp-bxbsf,ScS2,-1.495295626510416,0.314399350729166,False,0.0,0.193835099999999,6,2.614189199510279,138.583250612177,-10.650816229635417,,False,P4_2/mnm,136,Tetragonal,4/mmm,NM,,"{'materials': True, 'thermo': True, 'xas': False, 'grain_boundaries': False, 'chemenv': True, 'electronic_structure': True, 'absorption': False, 'bandstructure': True, 'dos': True, 'magnetism': True, 'elasticity': False, 'dielectric': False, 'piezoelectric': False, 'surface_properties': False, 'oxi_states': True, 'provenance': True, 'charge_density': True, 'eos': False, 'phonon': False, 'insertion_electrodes': False, 'substrates': True}",,,,,,
mp-ceu,ScS,-2.07528723390625,0.0,True,0.0,5e-07,2,3.601742527824012,35.50954359817304,-11.791549525,,False,Fm-3m,225,Cubic,m-3m,NM,"icsd-650842,icsd-650837,icsd-22238,icsd-44971","{'materials': True, 'thermo': True, 'xas': True, 'grain_boundaries': False, 'chemenv': True, 'electronic_structure': True, 'absorption': False, 'bandstructure': True, 'dos': True, 'magnetism': True, 'elasticity': True, 'dielectric': False, 'piezoelectric': False, 'surface_properties': False, 'oxi_states': True, 'provenance': True, 'charge_density': True, 'eos': False, 'phonon': False, 'insertion_electrodes': False, 'substrates': True}",,,,,,
mp-bmzgz,Sc2S3,-2.167943485687499,0.003690487,False,0.927999999999999,0.0,10,2.893723673250585,213.5916809677279,-11.547760764,24.02980691978452,False,C2/m,12,Monoclinic,2/m,NM,,"{'materials': True, 'thermo': True, 'xas': False, 'grain_boundaries': False, 'chemenv': True, 'electronic_structure': True, 'absorption': False, 'bandstructure': True, 'dos': True, 'magnetism': True, 'elasticity': True, 'dielectric': True, 'piezoelectric': False, 'surface_properties': False, 'oxi_states': True, 'provenance': True, 'charge_density': True, 'eos': False, 'phonon': True, 'insertion_electrodes': False, 'substrates': True}",,,,,,
mp-ckxwe,Sc2S3,-2.078628673687498,0.093005298999999,False,1.3929,0.0080264,20,3.092459446386907,399.73057971565817,-11.458445952,,False,Pnma,62,Orthorhombic,mmm,NM,,"{'materials': True, 'thermo': True, 'xas': True, 'grain_boundaries': False, 'chemenv': True, 'electronic_structure': True, 'absorption': False, 'bandstructure': False, 'dos': False, 'magnetism': True, 'elasticity': False, 'dielectric': False, 'piezoelectric': False, 'surface_properties': False, 'oxi_states': True, 'provenance': True, 'charge_density': True, 'eos': False, 'phonon': False, 'insertion_electrodes': False, 'substrates': False}",,,,,,
mp-pl,Sc2S3,-2.171633972687499,0.0,True,1.034999999999999,0.0,20,2.883972633977312,428.62771743663023,-11.551451251,22.76201019009454,False,Fddd,70,Orthorhombic,mmm,NM,"icsd-22236,icsd-654308,icsd-600040,icsd-650834","{'materials': True, 'thermo': True, 'xas': True, 'grain_boundaries': False, 'chemenv': True, 'electronic_structure': True, 'absorption': False, 'bandstructure': True, 'dos': True, 'magnetism': True, 'elasticity': True, 'dielectric': True, 'piezoelectric': False, 'surface_properties': False, 'oxi_states': True, 'provenance': True, 'charge_density': True, 'eos': False, 'phonon': False, 'insertion_electrodes': False, 'substrates': True}",,,,,,
mp-bmzhi,Sc29S42,-1.9321204952200661,0.23137149954225403,False,0.0,1.3752383,71,2.934623785965033,1499.7418730739405,-11.34036974644366,,False,Cm,8,Monoclinic,m,NM,,"{'materials': True, 'thermo': True, 'xas': False, 'grain_boundaries': False, 'chemenv': True, 'electronic_structure': True, 'absorption': False, 'bandstructure': False, 'dos': False, 'magnetism': True, 'elasticity': False, 'dielectric': False, 'piezoelectric': False, 'surface_properties': False, 'oxi_states': True, 'provenance': True, 'charge_density': False, 'eos': False, 'phonon': False, 'insertion_electrodes': False, 'substrates': True}",,,,,,
mp-oro,TiS3,-1.341742255208332,0.0,True,0.22610000000000002,0.0,8,3.12285272805444,153.2064428549375,-6.41866354375,14.623312470000002,False,P2_1/m,11,Monoclinic,2/m,NM,"icsd-651219,icsd-651177,icsd-604398,icsd-42072","{'materials': True, 'thermo': True, 'xas': True, 'grain_boundaries': False, 'chemenv': True, 'electronic_structure': True, 'absorption': False, 'bandstructure': True, 'dos': True, 'magnetism': True, 'elasticity': False, 'dielectric': True, 'piezoelectric': False, 'surface_properties': False, 'oxi_states': True, 'provenance': True, 'charge_density': True, 'eos': False, 'phonon': False, 'insertion_electrodes': False, 'substrates': True}",,,,,,
mp-cilbi,TiS2,-1.603972986111109,0.0035409266666670005,False,0.05109999999999901,1e-07,3,1.633573734481817,113.84572971295538,-6.9940688,,False,C2/m,12,Monoclinic,2/m,NM,icsd-41153,"{'materials': True, 'thermo': True, 'xas': True, 'grain_boundaries': False, 'chemenv': True, 'electronic_structure': True, 'absorption': False, 'bandstructure': True, 'dos': True, 'magnetism': True, 'elasticity': False, 'dielectric': False, 'piezoelectric': False, 'surface_properties': False, 'oxi_states': True, 'provenance': True, 'charge_density': True, 'eos': False, 'phonon': False, 'insertion_electrodes': False, 'substrates': False}",,,,,,
mp-cjhpf,TiS2,-1.603056449444443,0.004457463333333,False,0.0,0.0,6,2.104150566090482,176.77004377832424,-6.993152263333333,,False,C2/m,12,Monoclinic,2/m,NM,"icsd-41088,icsd-56494","{'materials': True, 'thermo': True, 'xas': False, 'grain_boundaries': False, 'chemenv': True, 'electronic_structure': True, 'absorption': False, 'bandstructure': True, 'dos': True, 'magnetism': True, 'elasticity': False, 'dielectric': False, 'piezoelectric': False, 'surface_properties': False, 'oxi_states': True, 'provenance': True, 'charge_density': True, 'eos': False, 'phonon': False, 'insertion_electrodes': True, 'substrates': False}",,,,,,
mp-chhos,TiS2,-1.38024083111111,0.22727308166666602,False,1.638199999999999,2.299999999999998e-06,6,2.17901452827855,170.69679107548046,-6.770336645,,False,I-42d,122,Tetragonal,-42m,NM,,"{'materials': True, 'thermo': True, 'xas': True, 'grain_boundaries': False, 'chemenv': True, 'electronic_structure': True, 'absorption': False, 'bandstructure': True, 'dos': True, 'magnetism': True, 'elasticity': True, 'dielectric': False, 'piezoelectric': False, 'surface_properties': False, 'oxi_states': True, 'provenance': True, 'charge_density': True, 'eos': False, 'phonon': False, 'insertion_electrodes': False, 'substrates': True}",,,,,,
mp-cfkdm,TiS2,-1.163345759444443,0.44416815333333304,False,0.0,0.0102419,3,3.9162215053456,47.48847673405239,-6.553441573333333,,False,I4/mmm,139,Tetragonal,4/mmm,NM,icsd-181504,"{'materials': True, 'thermo': True, 'xas': True, 'grain_boundaries': False, 'chemenv': True, 'electronic_structure': True, 'absorption': False, 'bandstructure': True, 'dos': True, 'magnetism': True, 'elasticity': True, 'dielectric': False, 'piezoelectric': False, 'surface_properties': False, 'oxi_states': True, 'provenance': True, 'charge_density': True, 'eos': False, 'phonon': False, 'insertion_electrodes': False, 'substrates': True}",,,,,,
mp-crfze,TiS2,-1.439357274444443,0.16815663833333303,False,0.7773000000000001,0.0001484,12,2.846945541057199,261.2981402839747,-6.829453088333333,,False,R3m,160,Trigonal,3m,NM,,"{'materials': True, 'thermo': True, 'xas': False, 'grain_boundaries': False, 'chemenv': True, 'electronic_structure': True, 'absorption': False, 'bandstructure': False, 'dos': True, 'magnetism': True, 'elasticity': False, 'dielectric': False, 'piezoelectric': False, 'surface_properties': False, 'oxi_states': True, 'provenance': True, 'charge_density': True, 'eos': False, 'phonon': False, 'insertion_electrodes': False, 'substrates': False}",,,,,,
mp-bfvmk,TiS3,-0.799944488958332,0.5417977662500001,False,0.0,4e-07,4,1.892822097087302,126.38302320151729,-5.8768657775,,False,R3m,160,Trigonal,3m,NM,"icsd-81124,icsd-41235","{'materials': True, 'thermo': True, 'xas': True, 'grain_boundaries': False, 'chemenv': True, 'electronic_structure': True, 'absorption': False, 'bandstructure': True, 'dos': True, 'magnetism': True, 'elasticity': False, 'dielectric': False, 'piezoelectric': False, 'surface_properties': False, 'oxi_states': True, 'provenance': True, 'charge_density': True, 'eos': False, 'phonon': False, 'insertion_electrodes': False, 'substrates': True}",,,,,,
mp-ckrcc,TiS2,-1.605192267222221,0.0023216455555550002,False,0.0,0.033517399999999004,9,2.7282007137692332,204.50334856601503,-6.995288081111111,,False,P-3m1,164,Trigonal,-3m,NM,,"{'materials': True, 'thermo': True, 'xas': False, 'grain_boundaries': False, 'chemenv': True, 'electronic_structure': True, 'absorption': False, 'bandstructure': True, 'dos': True, 'magnetism': True, 'elasticity': False, 'dielectric': False, 'piezoelectric': False, 'surface_properties': False, 'oxi_states': True, 'provenance': True, 'charge_density': True, 'eos': False, 'phonon': False, 'insertion_electrodes': True, 'substrates': False}",,,,,,
mp-dey,TiS2,-1.607513912777776,0.0,True,0.0,0.0,9,3.041030836952365,183.46613745131842,-6.997609726666667,,False,P-3m1,164,Trigonal,-3m,NM,"icsd-651186,icsd-26861,icsd-601315,icsd-91579,icsd-651203,icsd-603788,icsd-52195,icsd-174489,icsd-651212,icsd-651178,icsd-651207,icsd-604416,icsd-41663,icsd-651217,icsd-181500,icsd-601182,icsd-651201,icsd-651214","{'materials': True, 'thermo': True, 'xas': True, 'grain_boundaries': False, 'chemenv': True, 'electronic_structure': True, 'absorption': False, 'bandstructure': True, 'dos': True, 'magnetism': True, 'elasticity': True, 'dielectric': False, 'piezoelectric': False, 'surface_properties': False, 'oxi_states': True, 'provenance': True, 'charge_density': True, 'eos': False, 'phonon': False, 'insertion_electrodes': True, 'substrates': True}",,,,,,
mp-bftpu,TiS2,-1.605592862777777,0.0019210499999990003,False,0.0,1.699999999999999e-06,3,2.149604426677374,86.51610107142402,-6.995688676666667,,False,R-3m,166,Trigonal,-3m,NM,"icsd-56496,icsd-79803,icsd-41092","{'materials': True, 'thermo': True, 'xas': True, 'grain_boundaries': False, 'chemenv': True, 'electronic_structure': True, 'absorption': False, 'bandstructure': True, 'dos': True, 'magnetism': True, 'elasticity': False, 'dielectric': False, 'piezoelectric': False, 'surface_properties': False, 'oxi_states': True, 'provenance': True, 'charge_density': True, 'eos': False, 'phonon': False, 'insertion_electrodes': True, 'substrates': True}",,,,,,
mp-bftck,TiS,-1.579941213749998,0.139421751666667,False,0.0,0.0217114,6,4.35318353137896,91.47113213677865,-7.5963860783333335,,False,R-3m,166,Trigonal,-3m,NM,"icsd-651179,icsd-184500,icsd-25561","{'materials': True, 'thermo': True, 'xas': True, 'grain_boundaries': False, 'chemenv': True, 'electronic_structure': True, 'absorption': False, 'bandstructure': True, 'dos': True, 'magnetism': True, 'elasticity': True, 'dielectric': False, 'piezoelectric': False, 'surface_properties': False, 'oxi_states': True, 'provenance': True, 'charge_density': True, 'eos': False, 'phonon': False, 'insertion_electrodes': False, 'substrates': True}",,,,,,
mp-cfxyy,TiS,-1.719362965416666,0.0,True,0.0,0.0,2,4.46294849945536,29.740475088984113,-7.73580783,,False,P-6m2,187,Hexagonal,-6m2,NM,icsd-52193,"{'materials': True, 'thermo': True, 'xas': True, 'grain_boundaries': False, 'chemenv': True, 'electronic_structure': True, 'absorption': False, 'bandstructure': True, 'dos': True, 'magnetism': True, 'elasticity': True, 'dielectric': False, 'piezoelectric': False, 'surface_properties': False, 'oxi_states': True, 'provenance': True, 'charge_density': True, 'eos': False, 'phonon': False, 'insertion_electrodes': False, 'substrates': True}",,,,,,
mp-cfkdg,TiS2,-0.323945729444443,1.283568183333333,False,0.0,8.140000000000001e-05,3,3.9375306834200883,47.231477998404905,-5.714041543333334,,False,P6/mmm,191,Hexagonal,6/mmm,NM,icsd-181506,"{'materials': True, 'thermo': True, 'xas': True, 'grain_boundaries': False, 'chemenv': True, 'electronic_structure': True, 'absorption': False, 'bandstructure': True, 'dos': True, 'magnetism': True, 'elasticity': False, 'dielectric': False, 'piezoelectric': False, 'surface_properties': False, 'oxi_states': True, 'provenance': True, 'charge_density': True, 'eos': False, 'phonon': False, 'insertion_electrodes': False, 'substrates': True}",,,,,,
mp-cjhfx,TiS2,-1.465773792777777,0.14174012,False,0.20550000000000002,0.0001272,6,2.956462074706399,125.80942298099262,-6.8558696066666664,,False,P6_3/mmc,194,Hexagonal,6/mmm,NM,icsd-181503,"{'materials': True, 'thermo': True, 'xas': False, 'grain_boundaries': False, 'chemenv': True, 'electronic_structure': True, 'absorption': False, 'bandstructure': True, 'dos': True, 'magnetism': True, 'elasticity': False, 'dielectric': False, 'piezoelectric': False, 'surface_properties': False, 'oxi_states': True, 'provenance': True, 'charge_density': True, 'eos': False, 'phonon': False, 'insertion_electrodes': True, 'substrates': False}",,,,,,