material_id,formula_pretty,formation_energy_per_atom,energy_above_hull,is_stable,band_gap,total_magnetization,nsites,density,volume,energy_per_atom,e_total,is_magnetic,space_group_symbol,space_group_number,crystal_system,point_group,ordering,icsd_ids,has_props,lattice_a,lattice_b,lattice_c,lattice_alpha,lattice_beta,lattice_gamma
mp-chhog,MoS2,-0.31864154854166504,0.647500996666668,False,0.041800000000000004,0.000111699999999,6,3.271134546853978,162.51394406646963,-14.365326179999999,,False,I-42d,122,Tetragonal,-42m,NM,,"{'materials': True, 'thermo': True, 'xas': True, 'grain_boundaries': False, 'chemenv': True, 'electronic_structure': True, 'absorption': False, 'bandstructure': True, 'dos': True, 'magnetism': True, 'elasticity': False, 'dielectric': False, 'piezoelectric': False, 'surface_properties': False, 'oxi_states': True, 'provenance': True, 'charge_density': True, 'eos': False, 'phonon': False, 'insertion_electrodes': False, 'substrates': True}",,,,,,
mp-cde,MoS2,-0.9661425452083321,0.0,True,1.2042,0.0,3,4.669644630696905,56.92135256789191,-15.012827176666667,10.162156303670244,False,R3m,160,Trigonal,3m,NM,"icsd-43695,icsd-38401,icsd-76370,icsd-40081,icsd-43560","{'materials': True, 'thermo': True, 'xas': True, 'grain_boundaries': False, 'chemenv': True, 'electronic_structure': True, 'absorption': False, 'bandstructure': True, 'dos': True, 'magnetism': True, 'elasticity': False, 'dielectric': True, 'piezoelectric': True, 'surface_properties': False, 'oxi_states': True, 'provenance': True, 'charge_density': True, 'eos': False, 'phonon': False, 'insertion_electrodes': False, 'substrates': True}",,,,,,
mp-cgmaf,MoS2,-0.9624610102083341,0.0036815349999980004,False,1.463999999999999,0.0,12,3.512864135007714,302.66184876527046,-15.009145641666668,43.981031673454005,False,P-3m1,164,Trigonal,-3m,NM,,"{'materials': True, 'thermo': True, 'xas': False, 'grain_boundaries': False, 'chemenv': True, 'electronic_structure': True, 'absorption': False, 'bandstructure': True, 'dos': True, 'magnetism': True, 'elasticity': False, 'dielectric': True, 'piezoelectric': False, 'surface_properties': False, 'oxi_states': True, 'provenance': True, 'charge_density': True, 'eos': False, 'phonon': False, 'insertion_electrodes': False, 'substrates': True}",,,,,,
mp-cggsh,MoS2,-0.958906750208332,0.0072357949999990005,False,1.5539,0.0,6,2.793155399236568,190.32416775902382,-15.005591381666667,,False,P-3m1,164,Trigonal,-3m,NM,,"{'materials': True, 'thermo': True, 'xas': False, 'grain_boundaries': False, 'chemenv': True, 'electronic_structure': True, 'absorption': False, 'bandstructure': True, 'dos': True, 'magnetism': True, 'elasticity': True, 'dielectric': False, 'piezoelectric': False, 'surface_properties': False, 'oxi_states': True, 'provenance': True, 'charge_density': True, 'eos': False, 'phonon': False, 'insertion_electrodes': False, 'substrates': True}",,,,,,
mp-csmob,MoS2,-0.6698387318749981,0.296303813333334,False,0.0,2.4e-06,3,4.667732420508524,56.944671297525716,-14.716523363333332,,False,P-3m1,164,Trigonal,-3m,NM,,"{'materials': True, 'thermo': True, 'xas': False, 'grain_boundaries': False, 'chemenv': True, 'electronic_structure': True, 'absorption': False, 'bandstructure': True, 'dos': True, 'magnetism': True, 'elasticity': False, 'dielectric': False, 'piezoelectric': False, 'surface_properties': False, 'oxi_states': True, 'provenance': True, 'charge_density': True, 'eos': False, 'phonon': False, 'insertion_electrodes': False, 'substrates': False}",,,,,,
mp-bfugm,MoS2,-0.6864253585416641,0.279717186666669,False,0.0,3.799999999999998e-06,3,4.768964188289766,55.73589523765817,-14.733109989999997,,False,R-3m,166,Trigonal,-3m,NM,"icsd-26622,icsd-644249","{'materials': True, 'thermo': True, 'xas': True, 'grain_boundaries': False, 'chemenv': True, 'electronic_structure': True, 'absorption': False, 'bandstructure': True, 'dos': True, 'magnetism': True, 'elasticity': False, 'dielectric': False, 'piezoelectric': False, 'surface_properties': False, 'oxi_states': True, 'provenance': True, 'charge_density': True, 'eos': False, 'phonon': False, 'insertion_electrodes': False, 'substrates': True}",,,,,,
mp-cggrs,MoS2,-0.951702631874998,0.014439913333333,False,1.6605999999999992,0.0,3,1.746361466702365,152.20359213065655,-14.998387263333333,4.497769916664597,False,P-6m2,187,Hexagonal,-6m2,NM,,"{'materials': True, 'thermo': True, 'xas': False, 'grain_boundaries': False, 'chemenv': True, 'electronic_structure': True, 'absorption': False, 'bandstructure': True, 'dos': True, 'magnetism': True, 'elasticity': True, 'dielectric': True, 'piezoelectric': True, 'surface_properties': False, 'oxi_states': True, 'provenance': True, 'charge_density': True, 'eos': False, 'phonon': False, 'insertion_electrodes': False, 'substrates': True}",,,,,,
mp-cgjos,MoS2,-0.9617292007638881,0.004413344444444,False,1.5093,0.0,9,3.199447346194123,249.23287645928454,-15.008413832222223,,False,P-6m2,187,Hexagonal,-6m2,NM,,"{'materials': True, 'thermo': True, 'xas': False, 'grain_boundaries': False, 'chemenv': True, 'electronic_structure': True, 'absorption': False, 'bandstructure': True, 'dos': True, 'magnetism': True, 'elasticity': True, 'dielectric': False, 'piezoelectric': False, 'surface_properties': False, 'oxi_states': True, 'provenance': True, 'charge_density': True, 'eos': False, 'phonon': False, 'insertion_electrodes': False, 'substrates': True}",,,,,,
mp-cfzcz,MoS2,-0.963753305208333,0.0023892399999990003,False,1.3361,0.0,6,4.5904816488390665,115.80592570624192,-15.010437936666667,,False,P6_3/mmc,194,Hexagonal,6/mmm,NM,icsd-644259,"{'materials': True, 'thermo': True, 'xas': True, 'grain_boundaries': False, 'chemenv': True, 'electronic_structure': True, 'absorption': False, 'bandstructure': True, 'dos': True, 'magnetism': True, 'elasticity': True, 'dielectric': False, 'piezoelectric': False, 'surface_properties': False, 'oxi_states': True, 'provenance': True, 'charge_density': True, 'eos': False, 'phonon': False, 'insertion_electrodes': True, 'substrates': True}",,,,,,
mp-eeh,MoS2,-0.9644498168750011,0.001692728333331,False,1.464899999999999,0.0,6,4.502639494068752,118.06518764862204,-15.011134448333335,9.757738991119203,False,P6_3/mmc,194,Hexagonal,6/mmm,NM,"icsd-644245,icsd-95570,icsd-105091,icsd-601647,icsd-644246,icsd-84180,icsd-24000,icsd-95569,icsd-49801,icsd-31067,icsd-191305,icsd-644250","{'materials': True, 'thermo': True, 'xas': True, 'grain_boundaries': False, 'chemenv': True, 'electronic_structure': True, 'absorption': False, 'bandstructure': True, 'dos': True, 'magnetism': True, 'elasticity': True, 'dielectric': True, 'piezoelectric': False, 'surface_properties': False, 'oxi_states': True, 'provenance': True, 'charge_density': True, 'eos': False, 'phonon': False, 'insertion_electrodes': True, 'substrates': True}",,,,,,
mp-dbymz,MoS2,-0.698599509375,0.267543035833332,False,0.0,0.0007220999999990001,12,4.808104566142248,221.12870860787197,-14.745284140833334,,False,F-43m,216,Cubic,-43m,NM,,"{'materials': True, 'thermo': True, 'xas': False, 'grain_boundaries': False, 'chemenv': True, 'electronic_structure': True, 'absorption': False, 'bandstructure': False, 'dos': True, 'magnetism': True, 'elasticity': True, 'dielectric': False, 'piezoelectric': False, 'surface_properties': False, 'oxi_states': True, 'provenance': True, 'charge_density': True, 'eos': False, 'phonon': False, 'insertion_electrodes': True, 'substrates': True}",,,,,,
mp-ceiqd,MoS2,-0.7997857265046291,0.166356818703704,False,0.0,2.6636182,54,2.67200365789618,1790.583174125959,-14.846470357962962,,True,Pmmn,59,Orthorhombic,mmm,FM,,"{'materials': True, 'thermo': True, 'xas': True, 'grain_boundaries': False, 'chemenv': True, 'electronic_structure': True, 'absorption': False, 'bandstructure': False, 'dos': False, 'magnetism': True, 'elasticity': False, 'dielectric': False, 'piezoelectric': False, 'surface_properties': False, 'oxi_states': True, 'provenance': True, 'charge_density': False, 'eos': False, 'phonon': False, 'insertion_electrodes': False, 'substrates': True}",,,,,,
mp-csndr,MoS3,-0.122454799687499,0.6021521092187491,False,0.0,0.0003336,4,3.7232414434260592,85.69083644159512,-12.665977580078124,,False,Pm,6,Monoclinic,m,NM,,"{'materials': True, 'thermo': True, 'xas': False, 'grain_boundaries': False, 'chemenv': True, 'electronic_structure': True, 'absorption': False, 'bandstructure': True, 'dos': True, 'magnetism': True, 'elasticity': False, 'dielectric': False, 'piezoelectric': False, 'surface_properties': False, 'oxi_states': True, 'provenance': True, 'charge_density': True, 'eos': False, 'phonon': False, 'insertion_electrodes': False, 'substrates': False}",,,,,,
mp-cqycj,MoS6,0.879622394553568,1.293683485357142,False,0.21579999999999902,2.000972,7,0.130782390478824,3660.915107300307,-9.731263720178575,,True,Cmmm,65,Orthorhombic,mmm,FiM,,"{'materials': True, 'thermo': True, 'xas': False, 'grain_boundaries': False, 'chemenv': False, 'electronic_structure': True, 'absorption': False, 'bandstructure': False, 'dos': False, 'magnetism': True, 'elasticity': False, 'dielectric': False, 'piezoelectric': False, 'surface_properties': False, 'oxi_states': True, 'provenance': True, 'charge_density': False, 'eos': False, 'phonon': False, 'insertion_electrodes': False, 'substrates': False}",,,,,,
mp-ckp,Mo2S3,-0.773987577687501,0.09554071300000101,False,0.0,0.0207705,10,5.6932190845009245,168.04545355124995,-16.02320169,,False,P2_1/m,11,Monoclinic,2/m,NM,"icsd-76371,icsd-16261,icsd-602115,icsd-62486,icsd-644254,icsd-644252,icsd-73453","{'materials': True, 'thermo': True, 'xas': True, 'grain_boundaries': False, 'chemenv': True, 'electronic_structure': True, 'absorption': False, 'bandstructure': True, 'dos': True, 'magnetism': True, 'elasticity': True, 'dielectric': False, 'piezoelectric': False, 'surface_properties': False, 'oxi_states': True, 'provenance': True, 'charge_density': True, 'eos': False, 'phonon': False, 'insertion_electrodes': False, 'substrates': True}",,,,,,
mp-dfg,Mo3S4,-0.763310599464288,0.064811582142855,False,0.0,0.0001121,14,5.050765740431783,273.58904781509915,-16.527894489285718,,False,R-3,148,Trigonal,-3,NM,"icsd-42133,icsd-76372,icsd-201579,icsd-603588,icsd-644266,icsd-600385,icsd-252376,icsd-644262,icsd-644244","{'materials': True, 'thermo': True, 'xas': True, 'grain_boundaries': False, 'chemenv': True, 'electronic_structure': True, 'absorption': False, 'bandstructure': True, 'dos': True, 'magnetism': True, 'elasticity': False, 'dielectric': False, 'piezoelectric': False, 'surface_properties': False, 'oxi_states': True, 'provenance': True, 'charge_density': False, 'eos': False, 'phonon': False, 'insertion_electrodes': True, 'substrates': True}",,,,,,
mp-ckvzt,Mo3S4,-0.717680714464287,0.110441467142859,False,0.0,0.0093537,14,6.03144007189029,229.10518436582598,-16.482264604285714,,False,P-1,2,Triclinic,-1,NM,icsd-237587,"{'materials': True, 'thermo': True, 'xas': True, 'grain_boundaries': False, 'chemenv': True, 'electronic_structure': True, 'absorption': False, 'bandstructure': True, 'dos': True, 'magnetism': True, 'elasticity': False, 'dielectric': False, 'piezoelectric': False, 'surface_properties': False, 'oxi_states': True, 'provenance': True, 'charge_density': True, 'eos': False, 'phonon': False, 'insertion_electrodes': False, 'substrates': False}",,,,,,
mp-cpfhk,Mo3S4,-0.13567714017857202,0.6924450414285731,False,0.09590000000000001,4.1e-06,14,3.354758079597623,411.90278311442233,-15.90026103,,False,P-1,2,Triclinic,-1,NM,,"{'materials': True, 'thermo': True, 'xas': False, 'grain_boundaries': False, 'chemenv': True, 'electronic_structure': True, 'absorption': False, 'bandstructure': False, 'dos': False, 'magnetism': True, 'elasticity': False, 'dielectric': False, 'piezoelectric': False, 'surface_properties': False, 'oxi_states': True, 'provenance': True, 'charge_density': True, 'eos': False, 'phonon': False, 'insertion_electrodes': False, 'substrates': False}",,,,,,
mp-bminl,Mo7S8,-0.649492895833333,0.12342114033333401,False,0.0,3.999754,30,5.689602949477235,541.7412502758426,-17.101236488999998,,True,P1,1,Triclinic,1,FM,,"{'materials': True, 'thermo': True, 'xas': True, 'grain_boundaries': False, 'chemenv': True, 'electronic_structure': True, 'absorption': False, 'bandstructure': True, 'dos': True, 'magnetism': True, 'elasticity': False, 'dielectric': False, 'piezoelectric': False, 'surface_properties': False, 'oxi_states': True, 'provenance': True, 'charge_density': True, 'eos': False, 'phonon': False, 'insertion_electrodes': False, 'substrates': True}",,,,,,
mp-bugf,Mo15S19,-0.727699676130511,0.082155104411764,False,0.0,0.0009586,68,4.73431668957399,1436.8875223216953,-16.719652585441175,,False,P6_3/m,176,Hexagonal,6/m,NM,"icsd-413406,icsd-644260","{'materials': True, 'thermo': True, 'xas': True, 'grain_boundaries': False, 'chemenv': True, 'electronic_structure': True, 'absorption': False, 'bandstructure': False, 'dos': False, 'magnetism': True, 'elasticity': False, 'dielectric': False, 'piezoelectric': False, 'surface_properties': False, 'oxi_states': True, 'provenance': True, 'charge_density': False, 'eos': False, 'phonon': False, 'insertion_electrodes': True, 'substrates': True}",,,,,,
mp-cqwzs,Mo21S8,-0.122767335603451,0.27701578655172504,False,0.0,0.010903399999999001,29,8.750497420880023,431.00589360857384,-21.218762716896553,,False,I4/m,87,Tetragonal,4/m,NM,,"{'materials': True, 'thermo': True, 'xas': False, 'grain_boundaries': False, 'chemenv': True, 'electronic_structure': True, 'absorption': False, 'bandstructure': False, 'dos': False, 'magnetism': True, 'elasticity': False, 'dielectric': False, 'piezoelectric': False, 'surface_properties': False, 'oxi_states': True, 'provenance': True, 'charge_density': True, 'eos': False, 'phonon': False, 'insertion_electrodes': False, 'substrates': False}",,,,,,
mp-oar,TcS2,-0.726010757708332,0.0,True,1.1885,0.0,12,4.694071105098641,229.4155268124772,-14.736922925833333,,False,P-1,2,Triclinic,-1,NM,icsd-81816,"{'materials': True, 'thermo': True, 'xas': True, 'grain_boundaries': False, 'chemenv': True, 'electronic_structure': True, 'absorption': False, 'bandstructure': True, 'dos': True, 'magnetism': True, 'elasticity': True, 'dielectric': False, 'piezoelectric': False, 'surface_properties': False, 'oxi_states': True, 'provenance': True, 'charge_density': True, 'eos': False, 'phonon': False, 'insertion_electrodes': False, 'substrates': True}",,,,,,
mp-dac,RuS2,-0.687351060208333,0.0,True,0.6683999999999991,0.0,12,6.146853388312788,178.51153198083136,-14.518220976666667,20.69489319333334,False,Pa-3,205,Cubic,m-3,NM,"icsd-604472,icsd-56019,icsd-52374,icsd-600680,icsd-650581,icsd-68472,icsd-650577,icsd-41996,icsd-24186,icsd-657507,icsd-650579","{'materials': True, 'thermo': True, 'xas': True, 'grain_boundaries': False, 'chemenv': True, 'electronic_structure': True, 'absorption': False, 'bandstructure': True, 'dos': True, 'magnetism': True, 'elasticity': True, 'dielectric': True, 'piezoelectric': False, 'surface_properties': False, 'oxi_states': True, 'provenance': True, 'charge_density': True, 'eos': False, 'phonon': True, 'insertion_electrodes': False, 'substrates': True}",,,,,,
mp-cpnud,RhS,-0.33868491202219103,0.222628095652172,False,0.0,0.0012986,4,6.071555994329905,73.82746310759208,-16.423817840615943,,False,P6_3mc,186,Hexagonal,6mm,NM,,"{'materials': True, 'thermo': True, 'xas': False, 'grain_boundaries': False, 'chemenv': True, 'electronic_structure': True, 'absorption': False, 'bandstructure': False, 'dos': False, 'magnetism': True, 'elasticity': False, 'dielectric': False, 'piezoelectric': False, 'surface_properties': False, 'oxi_states': True, 'provenance': True, 'charge_density': True, 'eos': False, 'phonon': False, 'insertion_electrodes': False, 'substrates': False}",,,,,,
mp-bhjn,RhS2,-0.46483696104166705,0.044848498697918,False,0.0,0.003079299999999,12,5.898130193079496,188.1063755320369,-13.8662713225,,False,Pa-3,205,Cubic,m-3,NM,"icsd-105914,icsd-650232","{'materials': True, 'thermo': True, 'xas': True, 'grain_boundaries': False, 'chemenv': True, 'electronic_structure': True, 'absorption': False, 'bandstructure': True, 'dos': True, 'magnetism': True, 'elasticity': False, 'dielectric': False, 'piezoelectric': False, 'surface_properties': False, 'oxi_states': True, 'provenance': True, 'charge_density': True, 'eos': False, 'phonon': False, 'insertion_electrodes': False, 'substrates': True}",,,,,,
mp-cdlkf,Rh2S3,-0.6116225516875,0.0,True,0.4203,0.0,10,6.144883119255724,163.22288044051223,-15.08653634,,False,R-3c,167,Trigonal,-3m,NM,,"{'materials': True, 'thermo': True, 'xas': True, 'grain_boundaries': False, 'chemenv': True, 'electronic_structure': True, 'absorption': False, 'bandstructure': True, 'dos': True, 'magnetism': True, 'elasticity': False, 'dielectric': False, 'piezoelectric': False, 'surface_properties': False, 'oxi_states': True, 'provenance': True, 'charge_density': True, 'eos': False, 'phonon': True, 'insertion_electrodes': False, 'substrates': True}",,,,,,
mp-zkn,Rh2S3,-0.610465406187501,0.001157145499998,False,0.19179999999999903,0.0,20,6.367977078242351,315.0091498043007,-15.085379194500002,27.106946976666666,False,Pbcn,60,Orthorhombic,mmm,NM,icsd-15344,"{'materials': True, 'thermo': True, 'xas': True, 'grain_boundaries': False, 'chemenv': True, 'electronic_structure': True, 'absorption': False, 'bandstructure': True, 'dos': True, 'magnetism': True, 'elasticity': False, 'dielectric': True, 'piezoelectric': False, 'surface_properties': False, 'oxi_states': True, 'provenance': True, 'charge_density': True, 'eos': False, 'phonon': False, 'insertion_electrodes': False, 'substrates': True}",,,,,,
mp-bsdt,Rh3S4,-0.6062629511309511,0.0,True,0.0,3e-07,21,6.486156807926365,335.6147118811866,-15.541239350952381,,False,C2/m,12,Monoclinic,2/m,NM,icsd-410813,"{'materials': True, 'thermo': True, 'xas': True, 'grain_boundaries': False, 'chemenv': True, 'electronic_structure': True, 'absorption': False, 'bandstructure': True, 'dos': True, 'magnetism': True, 'elasticity': False, 'dielectric': False, 'piezoelectric': False, 'surface_properties': False, 'oxi_states': True, 'provenance': True, 'charge_density': True, 'eos': False, 'phonon': False, 'insertion_electrodes': False, 'substrates': True}",,,,,,
mp-bgnv,Rh17S15,-0.541647407412106,0.0,True,0.0,1.2e-05,64,7.528841716620978,983.8469625381532,-17.12997381734375,,False,Pm-3m,221,Cubic,m-3m,NM,"icsd-650229,icsd-410838,icsd-23930","{'materials': True, 'thermo': True, 'xas': True, 'grain_boundaries': False, 'chemenv': True, 'electronic_structure': True, 'absorption': False, 'bandstructure': False, 'dos': False, 'magnetism': True, 'elasticity': False, 'dielectric': False, 'piezoelectric': False, 'surface_properties': False, 'oxi_states': True, 'provenance': True, 'charge_density': False, 'eos': False, 'phonon': False, 'insertion_electrodes': False, 'substrates': True}",,,,,,
mp-cpndf,PdS3,0.16538965656250101,0.41912597921874906,False,0.0,0.079125599999999,4,3.716300334918061,90.53362017539337,-11.600251666328125,,False,I4/mmm,139,Tetragonal,4/mmm,NM,,"{'materials': True, 'thermo': True, 'xas': False, 'grain_boundaries': False, 'chemenv': True, 'electronic_structure': True, 'absorption': False, 'bandstructure': True, 'dos': True, 'magnetism': True, 'elasticity': False, 'dielectric': False, 'piezoelectric': False, 'surface_properties': False, 'oxi_states': True, 'provenance': True, 'charge_density': True, 'eos': False, 'phonon': False, 'insertion_electrodes': False, 'substrates': False}",,,,,,