material_id,formula_pretty,formation_energy_per_atom,energy_above_hull,is_stable,band_gap,total_magnetization,nsites,density,volume,energy_per_atom,e_total,is_magnetic,space_group_symbol,space_group_number,crystal_system,point_group,ordering,icsd_ids,has_props,lattice_a,lattice_b,lattice_c,lattice_alpha,lattice_beta,lattice_gamma
mp-eez,IrS2,-0.502745337291661,0.0,True,0.5371,0.0,24,8.401620928439797,405.32579294529916,-23.31188797208333,18.25895803,False,Pnma,62,Orthorhombic,mmm,NM,"icsd-640950,icsd-80568","{'materials': True, 'thermo': True, 'xas': True, 'grain_boundaries': False, 'chemenv': True, 'electronic_structure': True, 'absorption': False, 'bandstructure': True, 'dos': True, 'magnetism': True, 'elasticity': False, 'dielectric': True, 'piezoelectric': False, 'surface_properties': False, 'oxi_states': True, 'provenance': True, 'charge_density': True, 'eos': False, 'phonon': False, 'insertion_electrodes': False, 'substrates': True}",,,,,,
mp-bxbdb,Ir2S3,-0.48724733868750103,0.000835235500002,False,1.137699999999999,0.0,10,9.693179459505735,164.6731569089483,-26.251411055,20.246998623336875,False,R-3c,167,Trigonal,-3m,NM,,"{'materials': True, 'thermo': True, 'xas': True, 'grain_boundaries': False, 'chemenv': True, 'electronic_structure': True, 'absorption': False, 'bandstructure': True, 'dos': True, 'magnetism': True, 'elasticity': True, 'dielectric': True, 'piezoelectric': False, 'surface_properties': False, 'oxi_states': True, 'provenance': True, 'charge_density': True, 'eos': False, 'phonon': True, 'insertion_electrodes': False, 'substrates': True}",,,,,,
mp-cpqjn,Ir2S3,-0.48808257418750106,0.0,True,0.7821,0.0,20,10.053255601186986,317.5501599488466,-26.2522462905,,False,Pbcn,60,Orthorhombic,mmm,NM,icsd-640948,"{'materials': True, 'thermo': True, 'xas': True, 'grain_boundaries': False, 'chemenv': True, 'electronic_structure': True, 'absorption': False, 'bandstructure': True, 'dos': True, 'magnetism': True, 'elasticity': False, 'dielectric': False, 'piezoelectric': False, 'surface_properties': False, 'oxi_states': True, 'provenance': True, 'charge_density': True, 'eos': False, 'phonon': False, 'insertion_electrodes': False, 'substrates': False}",,,,,,
mp-ckrxy,Ir3S8,-0.421793603863637,0.0,True,0.0,0.0001058,11,7.518421497762374,184.01641821623707,-20.54455343727273,,False,R-3,148,Trigonal,-3,NM,icsd-640951,"{'materials': True, 'thermo': True, 'xas': False, 'grain_boundaries': False, 'chemenv': True, 'electronic_structure': True, 'absorption': False, 'bandstructure': True, 'dos': True, 'magnetism': True, 'elasticity': False, 'dielectric': False, 'piezoelectric': False, 'surface_properties': False, 'oxi_states': True, 'provenance': True, 'charge_density': True, 'eos': False, 'phonon': False, 'insertion_electrodes': False, 'substrates': False}",,,,,,
mp-lc,PtS,-0.5334567439062461,0.0,True,0.38480000000000003,0.0,4,10.100456437172683,74.68767194538908,-30.2943338075,15.660751593333332,False,P4_2/mmc,131,Tetragonal,4/mmm,NM,"icsd-31131,icsd-649541,icsd-654379,icsd-649537","{'materials': True, 'thermo': True, 'xas': True, 'grain_boundaries': False, 'chemenv': True, 'electronic_structure': True, 'absorption': False, 'bandstructure': True, 'dos': True, 'magnetism': True, 'elasticity': True, 'dielectric': True, 'piezoelectric': False, 'surface_properties': False, 'oxi_states': True, 'provenance': True, 'charge_density': True, 'eos': False, 'phonon': True, 'insertion_electrodes': False, 'substrates': True}",,,,,,
mp-bdi,PtS2,-0.440054991874996,0.0,True,1.5467,0.0,3,7.051273539602691,61.04357903464705,-22.95865211,10.895142393333074,False,P-3m1,164,Trigonal,-3m,NM,"icsd-41388,icsd-603737,icsd-41375,icsd-659963,icsd-649534,icsd-649542","{'materials': True, 'thermo': True, 'xas': True, 'grain_boundaries': False, 'chemenv': True, 'electronic_structure': True, 'absorption': True, 'bandstructure': True, 'dos': True, 'magnetism': True, 'elasticity': False, 'dielectric': True, 'piezoelectric': False, 'surface_properties': False, 'oxi_states': True, 'provenance': True, 'charge_density': True, 'eos': False, 'phonon': False, 'insertion_electrodes': False, 'substrates': True}",,,,,,
mp-cqpan,PtS,-0.49855027515624706,0.034906468749998004,False,0.1882,0.0,16,10.952028308488732,275.52141233730737,-30.25942733875,,False,P4_2/m,84,Tetragonal,4/m,NM,icsd-649539,"{'materials': True, 'thermo': True, 'xas': True, 'grain_boundaries': False, 'chemenv': True, 'electronic_structure': True, 'absorption': False, 'bandstructure': True, 'dos': True, 'magnetism': True, 'elasticity': False, 'dielectric': False, 'piezoelectric': False, 'surface_properties': False, 'oxi_states': True, 'provenance': True, 'charge_density': True, 'eos': False, 'phonon': False, 'insertion_electrodes': False, 'substrates': False}",,,,,,
mp-ceane,AuS,0.05658852601562701,0.145344895468749,False,0.0,0.0006839,4,8.32725904758751,91.3423890468196,-29.25291016257812,,False,P6_3mc,186,Hexagonal,6mm,NM,,"{'materials': True, 'thermo': True, 'xas': True, 'grain_boundaries': False, 'chemenv': True, 'electronic_structure': True, 'absorption': False, 'bandstructure': True, 'dos': True, 'magnetism': True, 'elasticity': False, 'dielectric': False, 'piezoelectric': False, 'surface_properties': False, 'oxi_states': True, 'provenance': True, 'charge_density': True, 'eos': False, 'phonon': False, 'insertion_electrodes': False, 'substrates': True}",,,,,,
mp-crczh,AuS2,0.5640863996354091,0.6232573126041631,False,0.0,0.0063066,6,5.518603388852944,157.12709264647452,-21.653591801822923,,False,Pn-3m,224,Cubic,m-3m,NM,,"{'materials': True, 'thermo': True, 'xas': False, 'grain_boundaries': False, 'chemenv': True, 'electronic_structure': True, 'absorption': False, 'bandstructure': True, 'dos': True, 'magnetism': True, 'elasticity': False, 'dielectric': False, 'piezoelectric': False, 'surface_properties': False, 'oxi_states': True, 'provenance': True, 'charge_density': True, 'eos': False, 'phonon': False, 'insertion_electrodes': False, 'substrates': False}",,,,,,
mp-bkl,Au2S,-0.118341825937501,0.0,True,1.9091,0.0,6,9.644302410870814,146.69522383506134,-36.51966100166667,7.154380066666664,False,Pn-3m,224,Cubic,m-3m,NM,"icsd-78718,icsd-612282","{'materials': True, 'thermo': True, 'xas': True, 'grain_boundaries': False, 'chemenv': True, 'electronic_structure': True, 'absorption': True, 'bandstructure': True, 'dos': True, 'magnetism': True, 'elasticity': True, 'dielectric': True, 'piezoelectric': False, 'surface_properties': False, 'oxi_states': True, 'provenance': True, 'charge_density': True, 'eos': False, 'phonon': False, 'insertion_electrodes': False, 'substrates': True}",,,,,,
mp-ceand,Au3S,0.315489558046877,0.40424592750000704,False,0.0,0.00036409999999900005,8,14.283076016506907,144.85076350374436,-39.63173986125,,False,P6_3/mmc,194,Hexagonal,6/mmm,NM,,"{'materials': True, 'thermo': True, 'xas': True, 'grain_boundaries': False, 'chemenv': True, 'electronic_structure': True, 'absorption': False, 'bandstructure': True, 'dos': True, 'magnetism': True, 'elasticity': False, 'dielectric': False, 'piezoelectric': False, 'surface_properties': False, 'oxi_states': True, 'provenance': True, 'charge_density': True, 'eos': False, 'phonon': False, 'insertion_electrodes': False, 'substrates': True}",,,,,,
mp-yk,HgS,-0.23582434666666602,0.139715583333336,False,1.7077,0.0,6,8.97489224726409,129.13783449297435,-2.459359221666664,11.963143999971829,False,P3_121,152,Trigonal,32,NM,"icsd-56475,icsd-31129,icsd-81923","{'materials': True, 'thermo': True, 'xas': True, 'grain_boundaries': False, 'chemenv': True, 'electronic_structure': True, 'absorption': False, 'bandstructure': True, 'dos': True, 'magnetism': True, 'elasticity': True, 'dielectric': True, 'piezoelectric': True, 'surface_properties': False, 'oxi_states': True, 'provenance': True, 'charge_density': True, 'eos': False, 'phonon': False, 'insertion_electrodes': False, 'substrates': True}",,,,,,
mp-nrw,HgS,-0.37165940500000205,0.003880525,False,1.6863000000000001,0.0,6,6.995159723906291,165.68573061434714,-2.59519428,12.19342442998473,False,P3_221,154,Trigonal,32,NM,"icsd-169618,icsd-70054,icsd-602877,icsd-169615,icsd-639170,icsd-169616,icsd-169614,icsd-169617,icsd-639165","{'materials': True, 'thermo': True, 'xas': True, 'grain_boundaries': False, 'chemenv': True, 'electronic_structure': True, 'absorption': False, 'bandstructure': True, 'dos': True, 'magnetism': True, 'elasticity': True, 'dielectric': True, 'piezoelectric': True, 'surface_properties': False, 'oxi_states': True, 'provenance': True, 'charge_density': True, 'eos': False, 'phonon': False, 'insertion_electrodes': False, 'substrates': True}",,,,,,
mp-cdkjc,HgS,-0.373950982500003,0.0015889475000000002,False,0.0,2e-07,4,7.374683608341191,104.77268912332956,-2.5974858575,,False,P6_3mc,186,Hexagonal,6mm,NM,,"{'materials': True, 'thermo': True, 'xas': True, 'grain_boundaries': False, 'chemenv': True, 'electronic_structure': True, 'absorption': False, 'bandstructure': True, 'dos': True, 'magnetism': True, 'elasticity': False, 'dielectric': False, 'piezoelectric': False, 'surface_properties': False, 'oxi_states': True, 'provenance': True, 'charge_density': True, 'eos': False, 'phonon': False, 'insertion_electrodes': False, 'substrates': True}",,,,,,
mp-brf,HgS,-0.375539930000003,0.0,True,0.0,1e-07,2,7.375818019038935,52.378287471653465,-2.599074805,,False,F-43m,216,Cubic,-43m,NM,"icsd-56476,icsd-639163,icsd-56207,icsd-24094,icsd-104340,icsd-31066,icsd-639169,icsd-81917,icsd-639164","{'materials': True, 'thermo': True, 'xas': True, 'grain_boundaries': False, 'chemenv': True, 'electronic_structure': True, 'absorption': False, 'bandstructure': True, 'dos': True, 'magnetism': True, 'elasticity': True, 'dielectric': False, 'piezoelectric': False, 'surface_properties': False, 'oxi_states': True, 'provenance': True, 'charge_density': True, 'eos': True, 'phonon': False, 'insertion_electrodes': False, 'substrates': True}",,,,,,
mp-pya,HgS,-0.199199795000002,0.176340135,False,0.0,8.83e-05,2,8.88713319428579,43.47101681656189,-2.42273467,,False,Fm-3m,225,Cubic,m-3m,NM,"icsd-169621,icsd-56206,icsd-169620,icsd-169619","{'materials': True, 'thermo': True, 'xas': True, 'grain_boundaries': False, 'chemenv': True, 'electronic_structure': True, 'absorption': False, 'bandstructure': True, 'dos': True, 'magnetism': True, 'elasticity': True, 'dielectric': False, 'piezoelectric': False, 'surface_properties': False, 'oxi_states': True, 'provenance': True, 'charge_density': True, 'eos': False, 'phonon': False, 'insertion_electrodes': False, 'substrates': True}",,,,,,
mp-ckyqp,HgS4,-0.18558254200000002,0.0,True,1.047499999999999,1.3e-06,20,0.9817048101229011,2224.979510828908,-3.5574351195,,True,Pbcm,57,Orthorhombic,mmm,FM,icsd-20514,"{'materials': True, 'thermo': True, 'xas': False, 'grain_boundaries': False, 'chemenv': True, 'electronic_structure': True, 'absorption': False, 'bandstructure': False, 'dos': False, 'magnetism': True, 'elasticity': False, 'dielectric': False, 'piezoelectric': False, 'surface_properties': False, 'oxi_states': True, 'provenance': True, 'charge_density': False, 'eos': False, 'phonon': False, 'insertion_electrodes': False, 'substrates': False}",,,,,,
mp-daimn,Al2S3,-0.30627949402083304,0.930676729666666,False,0.0,0.6356994,30,1.649600203584016,906.9228512983968,-7.8195411623333335,,False,P1,1,Triclinic,1,NM,,"{'materials': True, 'thermo': True, 'xas': False, 'grain_boundaries': False, 'chemenv': True, 'electronic_structure': True, 'absorption': False, 'bandstructure': False, 'dos': False, 'magnetism': True, 'elasticity': False, 'dielectric': False, 'piezoelectric': False, 'surface_properties': False, 'oxi_states': True, 'provenance': True, 'charge_density': False, 'eos': False, 'phonon': False, 'insertion_electrodes': False, 'substrates': False}",,,,,,
mp-bkpvi,Al2S3,-0.691037594354166,0.545918629333334,False,0.0,0.9763493,30,1.64960030523549,906.9227954121047,-8.204299262666666,,False,P1,1,Triclinic,1,NM,"icsd-73220,icsd-609253","{'materials': True, 'thermo': True, 'xas': True, 'grain_boundaries': False, 'chemenv': True, 'electronic_structure': True, 'absorption': False, 'bandstructure': False, 'dos': False, 'magnetism': True, 'elasticity': False, 'dielectric': False, 'piezoelectric': False, 'surface_properties': False, 'oxi_states': True, 'provenance': True, 'charge_density': True, 'eos': False, 'phonon': False, 'insertion_electrodes': False, 'substrates': True}",,,,,,
mp-bnuiq,Al2S3,-0.7422107400208321,0.49474548366666704,False,1.025,0.0056047,30,1.567220842430697,954.5943236796813,-8.255472408333333,,False,P1,1,Triclinic,1,NM,"icsd-73220,icsd-609253","{'materials': True, 'thermo': True, 'xas': False, 'grain_boundaries': False, 'chemenv': True, 'electronic_structure': True, 'absorption': False, 'bandstructure': False, 'dos': False, 'magnetism': True, 'elasticity': False, 'dielectric': False, 'piezoelectric': False, 'surface_properties': False, 'oxi_states': True, 'provenance': True, 'charge_density': True, 'eos': False, 'phonon': False, 'insertion_electrodes': False, 'substrates': True}",,,,,,
mp-cefxt,Al2S3,0.860599957312499,2.097556181,False,0.0,0.235283399999999,30,1.637936136051554,913.3812284911597,-6.652661710999999,,False,P1,1,Triclinic,1,NM,,"{'materials': True, 'thermo': True, 'xas': False, 'grain_boundaries': False, 'chemenv': True, 'electronic_structure': True, 'absorption': False, 'bandstructure': False, 'dos': False, 'magnetism': True, 'elasticity': False, 'dielectric': False, 'piezoelectric': False, 'surface_properties': False, 'oxi_states': True, 'provenance': True, 'charge_density': False, 'eos': False, 'phonon': False, 'insertion_electrodes': False, 'substrates': False}",,,,,,
mp-bmyug,Al2S3,-1.234006491687499,0.0029497319999990004,False,2.0693,0.0,40,2.687685744024842,742.1800823566342,-8.74726816,,False,I4_1/amd,141,Tetragonal,4/mmm,NM,icsd-609251,"{'materials': True, 'thermo': True, 'xas': True, 'grain_boundaries': False, 'chemenv': True, 'electronic_structure': True, 'absorption': False, 'bandstructure': False, 'dos': False, 'magnetism': True, 'elasticity': False, 'dielectric': False, 'piezoelectric': False, 'surface_properties': False, 'oxi_states': True, 'provenance': True, 'charge_density': True, 'eos': False, 'phonon': False, 'insertion_electrodes': False, 'substrates': True}",,,,,,
mp-bmyvs,Al2S3,-1.100135145354166,0.136821078333333,False,0.0,3.4203577,120,2.64061046162262,2266.233724178345,-8.613396813666666,,True,P3m1,156,Trigonal,3m,FM,,"{'materials': True, 'thermo': True, 'xas': True, 'grain_boundaries': False, 'chemenv': True, 'electronic_structure': True, 'absorption': False, 'bandstructure': False, 'dos': False, 'magnetism': True, 'elasticity': False, 'dielectric': False, 'piezoelectric': False, 'surface_properties': False, 'oxi_states': True, 'provenance': True, 'charge_density': False, 'eos': False, 'phonon': False, 'insertion_electrodes': False, 'substrates': True}",,,,,,
mp-cjkfd,Al2S3,-1.195626505687499,0.041329718,False,2.4329,0.0,10,2.901711777756086,171.8594901585695,-8.708888174,,False,R-3c,167,Trigonal,-3m,NM,icsd-609250,"{'materials': True, 'thermo': True, 'xas': False, 'grain_boundaries': False, 'chemenv': True, 'electronic_structure': True, 'absorption': False, 'bandstructure': True, 'dos': True, 'magnetism': True, 'elasticity': False, 'dielectric': False, 'piezoelectric': False, 'surface_properties': False, 'oxi_states': True, 'provenance': True, 'charge_density': True, 'eos': False, 'phonon': False, 'insertion_electrodes': False, 'substrates': False}",,,,,,
mp-dyc,Al2S3,-1.236182702020833,0.000773521666667,False,2.817,2e-07,30,2.347476588351246,637.3056615604384,-8.749444370333332,,False,P6_1,169,Hexagonal,6,NM,,"{'materials': True, 'thermo': True, 'xas': True, 'grain_boundaries': False, 'chemenv': True, 'electronic_structure': True, 'absorption': False, 'bandstructure': True, 'dos': True, 'magnetism': True, 'elasticity': True, 'dielectric': False, 'piezoelectric': False, 'surface_properties': False, 'oxi_states': True, 'provenance': True, 'charge_density': True, 'eos': False, 'phonon': False, 'insertion_electrodes': False, 'substrates': True}",,,,,,
mp-crxhr,Al2S3,-1.236956223687499,0.0,True,3.0435,0.0,10,2.28953018269642,217.81180719136236,-8.750217892,,False,Cc,9,Monoclinic,m,NM,,"{'materials': True, 'thermo': True, 'xas': False, 'grain_boundaries': False, 'chemenv': True, 'electronic_structure': True, 'absorption': False, 'bandstructure': False, 'dos': True, 'magnetism': True, 'elasticity': False, 'dielectric': False, 'piezoelectric': False, 'surface_properties': False, 'oxi_states': True, 'provenance': True, 'charge_density': True, 'eos': False, 'phonon': False, 'insertion_electrodes': False, 'substrates': False}",,,,,,
mp-crwuw,Al5S8,-1.109359496346152,0.08002148796875001,False,0.0,0.0085645,13,2.7014644796864493,240.6031916625654,-8.642650993846154,,False,F-43m,216,Cubic,-43m,NM,,"{'materials': True, 'thermo': True, 'xas': False, 'grain_boundaries': False, 'chemenv': True, 'electronic_structure': True, 'absorption': False, 'bandstructure': False, 'dos': True, 'magnetism': True, 'elasticity': False, 'dielectric': False, 'piezoelectric': False, 'surface_properties': False, 'oxi_states': True, 'provenance': True, 'charge_density': True, 'eos': False, 'phonon': False, 'insertion_electrodes': False, 'substrates': False}",,,,,,
mp-oqj,GaS,-0.759311008906248,0.00490773625,False,1.866499999999999,0.0,4,3.762279741461088,89.85134659095839,-10.4977175975,7.647214876866994,False,R-3m,166,Trigonal,-3m,NM,icsd-40824,"{'materials': True, 'thermo': True, 'xas': True, 'grain_boundaries': False, 'chemenv': True, 'electronic_structure': True, 'absorption': False, 'bandstructure': True, 'dos': True, 'magnetism': True, 'elasticity': False, 'dielectric': True, 'piezoelectric': False, 'surface_properties': False, 'oxi_states': True, 'provenance': True, 'charge_density': True, 'eos': False, 'phonon': False, 'insertion_electrodes': False, 'substrates': True}",,,,,,
mp-dsl,GaS,-0.7642187451562491,0.0,True,2.0036,0.0,8,3.775576275936825,179.0698300424525,-10.50262533375,7.5704950000180915,False,P6_3/mmc,194,Hexagonal,6/mmm,NM,"icsd-654685,icsd-167394,icsd-173940,icsd-53588,icsd-25660,icsd-53587,icsd-201344,icsd-53590,icsd-658768,icsd-173941,icsd-635244,icsd-635251,icsd-59,icsd-53589,icsd-53586,icsd-201345","{'materials': True, 'thermo': True, 'xas': True, 'grain_boundaries': False, 'chemenv': True, 'electronic_structure': True, 'absorption': True, 'bandstructure': True, 'dos': True, 'magnetism': True, 'elasticity': True, 'dielectric': True, 'piezoelectric': False, 'surface_properties': False, 'oxi_states': True, 'provenance': True, 'charge_density': True, 'eos': False, 'phonon': False, 'insertion_electrodes': False, 'substrates': True}",,,,,,
mp-bfrpe,GaS,-0.7632964551562491,0.0009222900000000001,False,2.0183,0.0,8,3.787811707882922,178.49139666506898,-10.50170304375,7.547018250012537,False,P6_3/mmc,194,Hexagonal,6/mmm,NM,icsd-635254,"{'materials': True, 'thermo': True, 'xas': True, 'grain_boundaries': False, 'chemenv': True, 'electronic_structure': True, 'absorption': False, 'bandstructure': True, 'dos': True, 'magnetism': True, 'elasticity': True, 'dielectric': True, 'piezoelectric': False, 'surface_properties': False, 'oxi_states': True, 'provenance': True, 'charge_density': True, 'eos': False, 'phonon': False, 'insertion_electrodes': False, 'substrates': True}",,,,,,