material_id,formula_pretty,formation_energy_per_atom,energy_above_hull,is_stable,band_gap,total_magnetization,nsites,density,volume,energy_per_atom,e_total,is_magnetic,space_group_symbol,space_group_number,crystal_system,point_group,ordering,icsd_ids,has_props,lattice_a,lattice_b,lattice_c,lattice_alpha,lattice_beta,lattice_gamma
mp-bfnjc,ZnS,-0.9622840304447121,0.000414319175824,False,2.0298,0.0,52,4.136631015977919,1017.3360865803754,-9.434603946538461,,False,P3m1,156,Trigonal,3m,NM,icsd-107177,"{'materials': True, 'thermo': True, 'xas': True, 'grain_boundaries': False, 'chemenv': True, 'electronic_structure': True, 'absorption': False, 'bandstructure': False, 'dos': False, 'magnetism': True, 'elasticity': False, 'dielectric': False, 'piezoelectric': False, 'surface_properties': False, 'oxi_states': True, 'provenance': True, 'charge_density': True, 'eos': False, 'phonon': False, 'insertion_electrodes': False, 'substrates': True}",,,,,,
mp-bfnnw,ZnS,-0.961685718191964,0.0010126314285700002,False,2.0279,0.0,56,4.133526938798199,1096.4154453279523,-9.434005634285715,,False,P3m1,156,Trigonal,3m,NM,icsd-107185,"{'materials': True, 'thermo': True, 'xas': True, 'grain_boundaries': False, 'chemenv': True, 'electronic_structure': True, 'absorption': False, 'bandstructure': False, 'dos': False, 'magnetism': True, 'elasticity': False, 'dielectric': False, 'piezoelectric': False, 'surface_properties': False, 'oxi_states': True, 'provenance': True, 'charge_density': True, 'eos': False, 'phonon': False, 'insertion_electrodes': False, 'substrates': True}",,,,,,
mp-bfohb,ZnS,-0.962185640870535,0.000512708749999,False,2.0191,0.0,56,4.133865216379459,1096.325724752779,-9.434505556964286,,False,P3m1,156,Trigonal,3m,NM,icsd-107184,"{'materials': True, 'thermo': True, 'xas': True, 'grain_boundaries': False, 'chemenv': True, 'electronic_structure': True, 'absorption': False, 'bandstructure': False, 'dos': False, 'magnetism': True, 'elasticity': False, 'dielectric': False, 'piezoelectric': False, 'surface_properties': False, 'oxi_states': True, 'provenance': True, 'charge_density': True, 'eos': False, 'phonon': False, 'insertion_electrodes': False, 'substrates': True}",,,,,,
mp-bfovx,ZnS,-0.962055389739583,0.0006429598809520001,False,2.0385,0.0,48,4.135282873167822,939.3856136595164,-9.434375305833333,,False,P3m1,156,Trigonal,3m,NM,icsd-42993,"{'materials': True, 'thermo': True, 'xas': True, 'grain_boundaries': False, 'chemenv': True, 'electronic_structure': True, 'absorption': False, 'bandstructure': True, 'dos': True, 'magnetism': True, 'elasticity': False, 'dielectric': False, 'piezoelectric': False, 'surface_properties': False, 'oxi_states': True, 'provenance': True, 'charge_density': True, 'eos': False, 'phonon': False, 'insertion_electrodes': False, 'substrates': True}",,,,,,
mp-bfotg,ZnS,-0.962698349620534,0.0,True,2.0195,0.0,56,4.141139565305906,1094.3999128517012,-9.435018265714286,,False,P3m1,156,Trigonal,3m,NM,icsd-42816,"{'materials': True, 'thermo': True, 'xas': True, 'grain_boundaries': False, 'chemenv': True, 'electronic_structure': True, 'absorption': False, 'bandstructure': False, 'dos': False, 'magnetism': True, 'elasticity': False, 'dielectric': False, 'piezoelectric': False, 'surface_properties': False, 'oxi_states': True, 'provenance': True, 'charge_density': True, 'eos': False, 'phonon': False, 'insertion_electrodes': False, 'substrates': True}",,,,,,
mp-bfopd,ZnS,-0.962012003489583,0.000686346130951,False,2.034,0.0,48,4.1399412200845,938.3285976671797,-9.434331919583334,,False,P3m1,156,Trigonal,3m,NM,icsd-42848,"{'materials': True, 'thermo': True, 'xas': True, 'grain_boundaries': False, 'chemenv': True, 'electronic_structure': True, 'absorption': False, 'bandstructure': False, 'dos': False, 'magnetism': True, 'elasticity': False, 'dielectric': False, 'piezoelectric': False, 'surface_properties': False, 'oxi_states': True, 'provenance': True, 'charge_density': True, 'eos': False, 'phonon': False, 'insertion_electrodes': False, 'substrates': True}",,,,,,
mp-bfotp,ZnS,-0.9624573849479161,0.000240964672618,False,2.0216,0.0,48,4.13646643797577,939.1168277839166,-9.434777301041667,,False,P3m1,156,Trigonal,3m,NM,icsd-42995,"{'materials': True, 'thermo': True, 'xas': True, 'grain_boundaries': False, 'chemenv': True, 'electronic_structure': True, 'absorption': False, 'bandstructure': False, 'dos': False, 'magnetism': True, 'elasticity': False, 'dielectric': False, 'piezoelectric': False, 'surface_properties': False, 'oxi_states': True, 'provenance': True, 'charge_density': True, 'eos': False, 'phonon': False, 'insertion_electrodes': False, 'substrates': True}",,,,,,
mp-bfpmd,ZnS,-0.96197231390625,0.0007260357142850001,False,2.0305,0.0,52,4.134737859378411,1017.8018903608638,-9.43429223,,False,P3m1,156,Trigonal,3m,NM,icsd-107178,"{'materials': True, 'thermo': True, 'xas': True, 'grain_boundaries': False, 'chemenv': True, 'electronic_structure': True, 'absorption': False, 'bandstructure': False, 'dos': False, 'magnetism': True, 'elasticity': False, 'dielectric': False, 'piezoelectric': False, 'surface_properties': False, 'oxi_states': True, 'provenance': True, 'charge_density': True, 'eos': False, 'phonon': False, 'insertion_electrodes': False, 'substrates': True}",,,,,,
mp-bfpik,ZnS,-0.948980154675481,0.013718194945054002,False,1.596,0.0,52,4.149025430112542,1014.2969910184012,-9.421300070769231,,False,P3m1,156,Trigonal,3m,NM,icsd-107179,"{'materials': True, 'thermo': True, 'xas': True, 'grain_boundaries': False, 'chemenv': True, 'electronic_structure': True, 'absorption': False, 'bandstructure': False, 'dos': False, 'magnetism': True, 'elasticity': False, 'dielectric': False, 'piezoelectric': False, 'surface_properties': False, 'oxi_states': True, 'provenance': True, 'charge_density': True, 'eos': False, 'phonon': False, 'insertion_electrodes': False, 'substrates': True}",,,,,,
mp-bfoyr,ZnS,-0.9621898253348211,0.000508524285713,False,2.018,0.0,56,4.136811019794761,1095.545036428172,-9.434509741428572,,False,P3m1,156,Trigonal,3m,NM,icsd-107183,"{'materials': True, 'thermo': True, 'xas': True, 'grain_boundaries': False, 'chemenv': True, 'electronic_structure': True, 'absorption': False, 'bandstructure': False, 'dos': False, 'magnetism': True, 'elasticity': False, 'dielectric': False, 'piezoelectric': False, 'surface_properties': False, 'oxi_states': True, 'provenance': True, 'charge_density': True, 'eos': False, 'phonon': False, 'insertion_electrodes': False, 'substrates': True}",,,,,,
mp-bfpxa,ZnS,-0.962455199739583,0.00024314988095100001,False,2.0252,0.0,48,4.140512733484914,938.1990805271352,-9.434775115833334,,False,P3m1,156,Trigonal,3m,NM,icsd-42990,"{'materials': True, 'thermo': True, 'xas': True, 'grain_boundaries': False, 'chemenv': True, 'electronic_structure': True, 'absorption': False, 'bandstructure': True, 'dos': True, 'magnetism': True, 'elasticity': False, 'dielectric': False, 'piezoelectric': False, 'surface_properties': False, 'oxi_states': True, 'provenance': True, 'charge_density': True, 'eos': False, 'phonon': False, 'insertion_electrodes': False, 'substrates': True}",,,,,,
mp-bfozq,ZnS,-0.9617009913222161,0.0009973582983180001,False,2.0291,0.0110307,68,3.997283655978585,1376.7396969722602,-9.434020907415967,,False,P3m1,156,Trigonal,3m,NM,icsd-107196,"{'materials': True, 'thermo': True, 'xas': True, 'grain_boundaries': False, 'chemenv': True, 'electronic_structure': True, 'absorption': False, 'bandstructure': False, 'dos': False, 'magnetism': True, 'elasticity': False, 'dielectric': False, 'piezoelectric': False, 'surface_properties': False, 'oxi_states': True, 'provenance': True, 'charge_density': False, 'eos': False, 'phonon': False, 'insertion_electrodes': False, 'substrates': True}",,,,,,
mp-bfpyi,ZnS,-0.9620438711979161,0.0006544784226170001,False,2.036,0.0,48,4.138630196504454,938.6258387491231,-9.434363787291668,,False,P3m1,156,Trigonal,3m,NM,icsd-42994,"{'materials': True, 'thermo': True, 'xas': True, 'grain_boundaries': False, 'chemenv': True, 'electronic_structure': True, 'absorption': False, 'bandstructure': False, 'dos': False, 'magnetism': True, 'elasticity': False, 'dielectric': False, 'piezoelectric': False, 'surface_properties': False, 'oxi_states': True, 'provenance': True, 'charge_density': True, 'eos': False, 'phonon': False, 'insertion_electrodes': False, 'substrates': True}",,,,,,
mp-bfpad,ZnS,-0.9622275199479161,0.00047082967261800006,False,2.0197,0.0,48,4.139692758850113,938.38491544128,-9.434547436041667,,False,P3m1,156,Trigonal,3m,NM,icsd-107157,"{'materials': True, 'thermo': True, 'xas': True, 'grain_boundaries': False, 'chemenv': True, 'electronic_structure': True, 'absorption': False, 'bandstructure': False, 'dos': False, 'magnetism': True, 'elasticity': False, 'dielectric': False, 'piezoelectric': False, 'surface_properties': False, 'oxi_states': True, 'provenance': True, 'charge_density': True, 'eos': False, 'phonon': False, 'insertion_electrodes': False, 'substrates': True}",,,,,,
mp-bfpfz,ZnS,-0.962192134441963,0.0005062151785710001,False,2.0233,0.0,56,4.136194083695638,1095.7084429965078,-9.434512050535714,,False,P3m1,156,Trigonal,3m,NM,icsd-15744,"{'materials': True, 'thermo': True, 'xas': True, 'grain_boundaries': False, 'chemenv': True, 'electronic_structure': True, 'absorption': False, 'bandstructure': False, 'dos': False, 'magnetism': True, 'elasticity': False, 'dielectric': False, 'piezoelectric': False, 'surface_properties': False, 'oxi_states': True, 'provenance': True, 'charge_density': True, 'eos': False, 'phonon': False, 'insertion_electrodes': False, 'substrates': True}",,,,,,
mp-bfpov,ZnS,-0.9624543522395831,0.000243997380952,False,2.0142,0.0,48,4.140940447901398,938.102174696848,-9.434774268333333,,False,P3m1,156,Trigonal,3m,NM,icsd-42992,"{'materials': True, 'thermo': True, 'xas': True, 'grain_boundaries': False, 'chemenv': True, 'electronic_structure': True, 'absorption': False, 'bandstructure': False, 'dos': False, 'magnetism': True, 'elasticity': False, 'dielectric': False, 'piezoelectric': False, 'surface_properties': False, 'oxi_states': True, 'provenance': True, 'charge_density': True, 'eos': False, 'phonon': False, 'insertion_electrodes': False, 'substrates': True}",,,,,,
mp-bfpwp,ZnS,-0.962250998072916,0.000447351547618,False,2.03,0.0,48,4.135708550404982,939.2889252522513,-9.434570914166667,,False,P3m1,156,Trigonal,3m,NM,icsd-42844,"{'materials': True, 'thermo': True, 'xas': True, 'grain_boundaries': False, 'chemenv': True, 'electronic_structure': True, 'absorption': False, 'bandstructure': False, 'dos': False, 'magnetism': True, 'elasticity': False, 'dielectric': False, 'piezoelectric': False, 'surface_properties': False, 'oxi_states': True, 'provenance': True, 'charge_density': True, 'eos': False, 'phonon': False, 'insertion_electrodes': False, 'substrates': True}",,,,,,
mp-bfpvb,ZnS,-0.962111316614583,0.000587033005952,False,2.025,0.0,48,4.14039751074205,938.2251895833623,-9.434431232708333,,False,P3m1,156,Trigonal,3m,NM,icsd-42991,"{'materials': True, 'thermo': True, 'xas': True, 'grain_boundaries': False, 'chemenv': True, 'electronic_structure': True, 'absorption': False, 'bandstructure': True, 'dos': True, 'magnetism': True, 'elasticity': False, 'dielectric': False, 'piezoelectric': False, 'surface_properties': False, 'oxi_states': True, 'provenance': True, 'charge_density': True, 'eos': False, 'phonon': False, 'insertion_electrodes': False, 'substrates': True}",,,,,,
mp-bfpzs,ZnS,-0.962668218281249,3.0131339286754152e-05,False,2.0194,0.0,48,4.141497669370025,937.9759569096516,-9.434988134374999,,False,P3m1,156,Trigonal,3m,NM,icsd-42989,"{'materials': True, 'thermo': True, 'xas': True, 'grain_boundaries': False, 'chemenv': True, 'electronic_structure': True, 'absorption': False, 'bandstructure': False, 'dos': False, 'magnetism': True, 'elasticity': False, 'dielectric': False, 'piezoelectric': False, 'surface_properties': False, 'oxi_states': True, 'provenance': True, 'charge_density': True, 'eos': False, 'phonon': False, 'insertion_electrodes': False, 'substrates': True}",,,,,,
mp-bfpdf,ZnS,-0.9626829801562491,1.536946428615238e-05,False,2.018799999999999,0.0,56,4.136732567085231,1095.5658133276033,-9.43500289625,,False,P3m1,156,Trigonal,3m,NM,icsd-107182,"{'materials': True, 'thermo': True, 'xas': True, 'grain_boundaries': False, 'chemenv': True, 'electronic_structure': True, 'absorption': False, 'bandstructure': False, 'dos': False, 'magnetism': True, 'elasticity': False, 'dielectric': False, 'piezoelectric': False, 'surface_properties': False, 'oxi_states': True, 'provenance': True, 'charge_density': True, 'eos': False, 'phonon': False, 'insertion_electrodes': False, 'substrates': True}",,,,,,
mp-bfqdx,ZnS,-0.9623161397395831,0.00038220988095300006,False,2.0281,0.0,36,4.139493060245037,703.8226389555459,-9.434636055833332,,False,P3m1,156,Trigonal,3m,NM,icsd-42192,"{'materials': True, 'thermo': True, 'xas': True, 'grain_boundaries': False, 'chemenv': True, 'electronic_structure': True, 'absorption': False, 'bandstructure': False, 'dos': False, 'magnetism': True, 'elasticity': False, 'dielectric': False, 'piezoelectric': False, 'surface_properties': False, 'oxi_states': True, 'provenance': True, 'charge_density': True, 'eos': False, 'phonon': False, 'insertion_electrodes': False, 'substrates': True}",,,,,,
mp-bfqsm,ZnS,-0.9619858852951401,0.000712464325395,False,2.0263,0.0,36,4.138939648976525,703.9167460004576,-9.43430580138889,,False,P3m1,156,Trigonal,3m,NM,icsd-42191,"{'materials': True, 'thermo': True, 'xas': True, 'grain_boundaries': False, 'chemenv': True, 'electronic_structure': True, 'absorption': False, 'bandstructure': False, 'dos': False, 'magnetism': True, 'elasticity': False, 'dielectric': False, 'piezoelectric': False, 'surface_properties': False, 'oxi_states': True, 'provenance': True, 'charge_density': True, 'eos': False, 'phonon': False, 'insertion_electrodes': False, 'substrates': True}",,,,,,
mp-bfqmv,ZnS,-0.9615223076562511,0.001176041964285,False,2.0389,0.0,16,4.142794692184443,312.560765385015,-9.43384222375,8.698132423706726,False,P3m1,156,Trigonal,3m,NM,icsd-107134,"{'materials': True, 'thermo': True, 'xas': True, 'grain_boundaries': False, 'chemenv': True, 'electronic_structure': True, 'absorption': False, 'bandstructure': True, 'dos': True, 'magnetism': True, 'elasticity': False, 'dielectric': True, 'piezoelectric': True, 'surface_properties': False, 'oxi_states': True, 'provenance': True, 'charge_density': True, 'eos': False, 'phonon': False, 'insertion_electrodes': False, 'substrates': True}",,,,,,
mp-bfrbs,ZnS,-0.961798177477677,0.0009001721428570001,False,2.0369,0.0,28,4.135502731378398,547.9458089811175,-9.434118093571428,,False,P3m1,156,Trigonal,3m,NM,"icsd-42837,icsd-15741","{'materials': True, 'thermo': True, 'xas': True, 'grain_boundaries': False, 'chemenv': True, 'electronic_structure': True, 'absorption': False, 'bandstructure': True, 'dos': True, 'magnetism': True, 'elasticity': False, 'dielectric': False, 'piezoelectric': False, 'surface_properties': False, 'oxi_states': True, 'provenance': True, 'charge_density': True, 'eos': False, 'phonon': False, 'insertion_electrodes': False, 'substrates': True}",,,,,,
mp-bfqed,ZnS,-0.9625231364062501,0.00017521321428500003,False,2.0195,0.0,32,4.139707839129861,625.5876647054982,-9.4348430525,,False,P3m1,156,Trigonal,3m,NM,icsd-43068,"{'materials': True, 'thermo': True, 'xas': True, 'grain_boundaries': False, 'chemenv': True, 'electronic_structure': True, 'absorption': False, 'bandstructure': True, 'dos': True, 'magnetism': True, 'elasticity': False, 'dielectric': False, 'piezoelectric': False, 'surface_properties': False, 'oxi_states': True, 'provenance': True, 'charge_density': True, 'eos': False, 'phonon': False, 'insertion_electrodes': False, 'substrates': True}",,,,,,
mp-bfqsv,ZnS,-0.9621339131919641,0.00056443642857,False,1.4296,0.0,28,4.139330346759543,547.4391265878817,-9.434453829285715,,False,P3m1,156,Trigonal,3m,NM,icsd-42836,"{'materials': True, 'thermo': True, 'xas': True, 'grain_boundaries': False, 'chemenv': True, 'electronic_structure': True, 'absorption': False, 'bandstructure': True, 'dos': True, 'magnetism': True, 'elasticity': False, 'dielectric': False, 'piezoelectric': False, 'surface_properties': False, 'oxi_states': True, 'provenance': True, 'charge_density': True, 'eos': False, 'phonon': False, 'insertion_electrodes': False, 'substrates': True}",,,,,,
mp-bfqmq,ZnS,-0.962087775724432,0.0006105738961030001,False,2.0254,0.0,44,4.136395195341013,860.871918989195,-9.434407691818182,,False,P3m1,156,Trigonal,3m,NM,icsd-42787,"{'materials': True, 'thermo': True, 'xas': True, 'grain_boundaries': False, 'chemenv': True, 'electronic_structure': True, 'absorption': False, 'bandstructure': False, 'dos': False, 'magnetism': True, 'elasticity': False, 'dielectric': False, 'piezoelectric': False, 'surface_properties': False, 'oxi_states': True, 'provenance': True, 'charge_density': True, 'eos': False, 'phonon': False, 'insertion_electrodes': False, 'substrates': True}",,,,,,
mp-bfqup,ZnS,-0.96210754340625,0.000590806214285,False,2.0276,0.0,40,4.139649203780353,781.9956571680393,-9.4344274595,,False,P3m1,156,Trigonal,3m,NM,icsd-107150,"{'materials': True, 'thermo': True, 'xas': True, 'grain_boundaries': False, 'chemenv': True, 'electronic_structure': True, 'absorption': False, 'bandstructure': False, 'dos': False, 'magnetism': True, 'elasticity': False, 'dielectric': False, 'piezoelectric': False, 'surface_properties': False, 'oxi_states': True, 'provenance': True, 'charge_density': True, 'eos': False, 'phonon': False, 'insertion_electrodes': False, 'substrates': True}",,,,,,
mp-bfrap,ZnS,-0.9622874519618051,0.00041089765873000004,False,2.0282,0.0,36,4.139907508367396,703.7521789342534,-9.434607368055556,,False,P3m1,156,Trigonal,3m,NM,icsd-42190,"{'materials': True, 'thermo': True, 'xas': True, 'grain_boundaries': False, 'chemenv': True, 'electronic_structure': True, 'absorption': False, 'bandstructure': False, 'dos': False, 'magnetism': True, 'elasticity': False, 'dielectric': False, 'piezoelectric': False, 'surface_properties': False, 'oxi_states': True, 'provenance': True, 'charge_density': True, 'eos': False, 'phonon': False, 'insertion_electrodes': False, 'substrates': True}",,,,,,
mp-bfqxk,ZnS,-0.9623396429062511,0.00035870671428500005,False,2.0238,0.0,40,4.140281995133783,781.8761387171566,-9.434659559,,False,P3m1,156,Trigonal,3m,NM,icsd-107149,"{'materials': True, 'thermo': True, 'xas': True, 'grain_boundaries': False, 'chemenv': True, 'electronic_structure': True, 'absorption': False, 'bandstructure': False, 'dos': False, 'magnetism': True, 'elasticity': False, 'dielectric': False, 'piezoelectric': False, 'surface_properties': False, 'oxi_states': True, 'provenance': True, 'charge_density': True, 'eos': False, 'phonon': False, 'insertion_electrodes': False, 'substrates': True}",,,,,,
mp-bfpzu,ZnS,-0.9624169718750011,0.00028137774553500003,False,1.858099999999999,0.0,64,4.139642475017291,1251.1950852149266,-9.43473688796875,,False,P3m1,156,Trigonal,3m,NM,icsd-107192,"{'materials': True, 'thermo': True, 'xas': True, 'grain_boundaries': False, 'chemenv': True, 'electronic_structure': True, 'absorption': False, 'bandstructure': False, 'dos': False, 'magnetism': True, 'elasticity': False, 'dielectric': False, 'piezoelectric': False, 'surface_properties': False, 'oxi_states': True, 'provenance': True, 'charge_density': False, 'eos': False, 'phonon': False, 'insertion_electrodes': False, 'substrates': True}",,,,,,