material_id,formula_pretty,formation_energy_per_atom,energy_above_hull,is_stable,band_gap,total_magnetization,nsites,density,volume,energy_per_atom,e_total,is_magnetic,space_group_symbol,space_group_number,crystal_system,point_group,ordering,icsd_ids,has_props,lattice_a,lattice_b,lattice_c,lattice_alpha,lattice_beta,lattice_gamma
mp-cjace,TiS2,-0.8629669294444431,0.744546983333333,False,0.0,0.0132202,6,4.041041179932122,92.04330545581027,-6.253062743333333,,False,P6_3/mmc,194,Hexagonal,6/mmm,NM,icsd-181507,"{'materials': True, 'thermo': True, 'xas': True, 'grain_boundaries': False, 'chemenv': True, 'electronic_structure': True, 'absorption': False, 'bandstructure': True, 'dos': True, 'magnetism': True, 'elasticity': False, 'dielectric': False, 'piezoelectric': False, 'surface_properties': False, 'oxi_states': True, 'provenance': True, 'charge_density': True, 'eos': False, 'phonon': False, 'insertion_electrodes': False, 'substrates': False}",,,,,,
mp-uz,TiS,-1.447858830416666,0.27150413499999904,False,0.0,0.0153034,4,4.33224264388867,61.275519208836855,-7.464303695,,False,P6_3/mmc,194,Hexagonal,6/mmm,NM,,"{'materials': True, 'thermo': True, 'xas': True, 'grain_boundaries': False, 'chemenv': True, 'electronic_structure': True, 'absorption': False, 'bandstructure': True, 'dos': True, 'magnetism': True, 'elasticity': False, 'dielectric': False, 'piezoelectric': False, 'surface_properties': False, 'oxi_states': True, 'provenance': True, 'charge_density': True, 'eos': False, 'phonon': False, 'insertion_electrodes': False, 'substrates': True}",,,,,,
mp-bfofm,TiS,-1.654195325416667,0.065167639999998,False,0.0,3e-07,4,4.464608003255582,59.458840988810046,-7.670640190000001,,False,P6_3/mmc,194,Hexagonal,6/mmm,NM,"icsd-76036,icsd-651197,icsd-651192,icsd-52121","{'materials': True, 'thermo': True, 'xas': True, 'grain_boundaries': False, 'chemenv': True, 'electronic_structure': True, 'absorption': False, 'bandstructure': True, 'dos': True, 'magnetism': True, 'elasticity': True, 'dielectric': False, 'piezoelectric': False, 'surface_properties': False, 'oxi_states': True, 'provenance': True, 'charge_density': True, 'eos': False, 'phonon': False, 'insertion_electrodes': False, 'substrates': True}",,,,,,
mp-daxqi,TiS2,-0.22380199861110903,1.3837119141666672,False,0.0,0.6088039,12,2.461065118200418,302.2681398661881,-5.613897812499999,,True,P-1,2,Triclinic,-1,FM,,"{'materials': True, 'thermo': True, 'xas': False, 'grain_boundaries': False, 'chemenv': True, 'electronic_structure': True, 'absorption': False, 'bandstructure': False, 'dos': True, 'magnetism': True, 'elasticity': False, 'dielectric': False, 'piezoelectric': False, 'surface_properties': False, 'oxi_states': True, 'provenance': True, 'charge_density': False, 'eos': False, 'phonon': False, 'insertion_electrodes': False, 'substrates': False}",,,,,,
mp-bmzir,TiS2,-1.208757960277777,0.3987559525,False,0.0,0.0003632,12,2.461065906324076,302.2680430688322,-6.598853774166667,,False,P-1,2,Triclinic,-1,NM,,"{'materials': True, 'thermo': True, 'xas': False, 'grain_boundaries': False, 'chemenv': True, 'electronic_structure': True, 'absorption': False, 'bandstructure': False, 'dos': False, 'magnetism': True, 'elasticity': False, 'dielectric': False, 'piezoelectric': False, 'surface_properties': False, 'oxi_states': True, 'provenance': True, 'charge_density': True, 'eos': False, 'phonon': False, 'insertion_electrodes': False, 'substrates': True}",,,,,,
mp-cbgsx,TiS2,0.350480719722223,1.9579946325000002,False,0.0,0.1365471,12,2.461065118200418,302.2681398661881,-5.039615094166667,,False,P-1,2,Triclinic,-1,NM,,"{'materials': True, 'thermo': True, 'xas': False, 'grain_boundaries': False, 'chemenv': True, 'electronic_structure': True, 'absorption': False, 'bandstructure': False, 'dos': False, 'magnetism': True, 'elasticity': False, 'dielectric': False, 'piezoelectric': False, 'surface_properties': False, 'oxi_states': True, 'provenance': True, 'charge_density': False, 'eos': False, 'phonon': False, 'insertion_electrodes': False, 'substrates': False}",,,,,,
mp-cktld,TiS2,-1.286476575277776,0.3210373375,False,0.0,0.0006359,12,3.432732578341733,216.7082807619581,-6.676572389166666,,False,Pa-3,205,Cubic,m-3,NM,icsd-181501,"{'materials': True, 'thermo': True, 'xas': True, 'grain_boundaries': False, 'chemenv': True, 'electronic_structure': True, 'absorption': False, 'bandstructure': False, 'dos': True, 'magnetism': True, 'elasticity': False, 'dielectric': False, 'piezoelectric': False, 'surface_properties': False, 'oxi_states': True, 'provenance': True, 'charge_density': True, 'eos': False, 'phonon': False, 'insertion_electrodes': False, 'substrates': False}",,,,,,
mp-njf,TiS2,-1.58728328111111,0.020230631666667002,False,0.0,1e-07,12,3.153337294684891,235.9092941379548,-6.977379095,,False,Fd-3m,227,Cubic,m-3m,NM,icsd-72042,"{'materials': True, 'thermo': True, 'xas': True, 'grain_boundaries': False, 'chemenv': True, 'electronic_structure': True, 'absorption': False, 'bandstructure': True, 'dos': True, 'magnetism': True, 'elasticity': True, 'dielectric': False, 'piezoelectric': False, 'surface_properties': False, 'oxi_states': True, 'provenance': True, 'charge_density': True, 'eos': False, 'phonon': False, 'insertion_electrodes': True, 'substrates': True}",,,,,,
mp-cizye,TiS2,-1.489506207777777,0.118007705,False,0.0,0.0001032,6,3.272188388883109,113.67034641026817,-6.879602021666667,,False,Pnnm,58,Orthorhombic,mmm,NM,icsd-181502,"{'materials': True, 'thermo': True, 'xas': True, 'grain_boundaries': False, 'chemenv': True, 'electronic_structure': True, 'absorption': False, 'bandstructure': True, 'dos': True, 'magnetism': True, 'elasticity': False, 'dielectric': False, 'piezoelectric': False, 'surface_properties': False, 'oxi_states': True, 'provenance': True, 'charge_density': True, 'eos': False, 'phonon': False, 'insertion_electrodes': True, 'substrates': False}",,,,,,
mp-ckqtb,TiS,1.132034999583333,2.851397964999999,False,0.7957000000000001,3.9999295,4,0.020562228328728,12910.099678839813,-4.884409865,,True,Pmmn,59,Orthorhombic,mmm,FM,,"{'materials': True, 'thermo': True, 'xas': False, 'grain_boundaries': False, 'chemenv': False, 'electronic_structure': True, 'absorption': False, 'bandstructure': False, 'dos': False, 'magnetism': True, 'elasticity': False, 'dielectric': False, 'piezoelectric': False, 'surface_properties': False, 'oxi_states': True, 'provenance': True, 'charge_density': False, 'eos': False, 'phonon': False, 'insertion_electrodes': False, 'substrates': False}",,,,,,
mp-cksdl,TiS2,-1.32399439361111,0.283519519166667,False,0.0,0.0010205,12,3.911617326319758,190.1774926607915,-6.7140902075,,False,Pnma,62,Orthorhombic,mmm,NM,"icsd-181505,icsd-174490","{'materials': True, 'thermo': True, 'xas': False, 'grain_boundaries': False, 'chemenv': True, 'electronic_structure': True, 'absorption': False, 'bandstructure': False, 'dos': True, 'magnetism': True, 'elasticity': False, 'dielectric': False, 'piezoelectric': False, 'surface_properties': False, 'oxi_states': True, 'provenance': True, 'charge_density': True, 'eos': False, 'phonon': False, 'insertion_electrodes': False, 'substrates': False}",,,,,,
mp-ckqvz,Ti2S3,-1.706255212833332,0.0,True,0.0,0.0017821999999990002,10,3.6485782658284,174.70125582799304,-7.346890646999999,,False,C2/m,12,Monoclinic,2/m,NM,,"{'materials': True, 'thermo': True, 'xas': False, 'grain_boundaries': False, 'chemenv': True, 'electronic_structure': True, 'absorption': False, 'bandstructure': True, 'dos': True, 'magnetism': True, 'elasticity': False, 'dielectric': False, 'piezoelectric': False, 'surface_properties': False, 'oxi_states': True, 'provenance': True, 'charge_density': True, 'eos': False, 'phonon': False, 'insertion_electrodes': False, 'substrates': False}",,,,,,
mp-crgpc,Ti2S3,-1.680487956333333,0.025767256499999003,False,0.0,1.4337438,20,3.654237267616948,348.86142214986495,-7.3211233905,,True,C2/c,15,Monoclinic,2/m,FM,,"{'materials': True, 'thermo': True, 'xas': False, 'grain_boundaries': False, 'chemenv': True, 'electronic_structure': True, 'absorption': False, 'bandstructure': False, 'dos': False, 'magnetism': True, 'elasticity': False, 'dielectric': False, 'piezoelectric': False, 'surface_properties': False, 'oxi_states': True, 'provenance': True, 'charge_density': True, 'eos': False, 'phonon': False, 'insertion_electrodes': False, 'substrates': False}",,,,,,
mp-bjcbv,Ti2S,-1.254497415555554,0.0,True,0.0,4e-07,36,4.828433316784582,527.413887485313,-7.897291330833332,,False,Pnnm,58,Orthorhombic,mmm,NM,"icsd-651176,icsd-110698,icsd-15319","{'materials': True, 'thermo': True, 'xas': True, 'grain_boundaries': False, 'chemenv': True, 'electronic_structure': True, 'absorption': False, 'bandstructure': True, 'dos': True, 'magnetism': True, 'elasticity': True, 'dielectric': False, 'piezoelectric': False, 'surface_properties': False, 'oxi_states': True, 'provenance': True, 'charge_density': True, 'eos': False, 'phonon': False, 'insertion_electrodes': False, 'substrates': True}",,,,,,
mp-crgkn,Ti3S2,-1.141571572999999,0.29887206249999904,False,0.0,0.000177,5,4.178284977229527,82.55670513709327,-7.533825867999999,,False,R32,155,Trigonal,32,NM,,"{'materials': True, 'thermo': True, 'xas': False, 'grain_boundaries': False, 'chemenv': True, 'electronic_structure': True, 'absorption': False, 'bandstructure': True, 'dos': True, 'magnetism': True, 'elasticity': False, 'dielectric': False, 'piezoelectric': False, 'surface_properties': False, 'oxi_states': True, 'provenance': True, 'charge_density': True, 'eos': False, 'phonon': False, 'insertion_electrodes': False, 'substrates': False}",,,,,,
mp-crglp,Ti3S4,-1.607071132857142,0.10292915214285601,False,0.0,0.0025555,7,3.7197294571825372,121.36253896456145,-7.35508069,,False,P3m1,156,Trigonal,3m,NM,,"{'materials': True, 'thermo': True, 'xas': False, 'grain_boundaries': False, 'chemenv': True, 'electronic_structure': True, 'absorption': False, 'bandstructure': True, 'dos': True, 'magnetism': True, 'elasticity': False, 'dielectric': False, 'piezoelectric': False, 'surface_properties': False, 'oxi_states': True, 'provenance': True, 'charge_density': True, 'eos': False, 'phonon': False, 'insertion_electrodes': False, 'substrates': False}",,,,,,
mp-ckqwa,Ti3S4,0.847747754285715,2.557748039285713,False,0.2669,0.00046649999999900005,7,0.5101071318475341,884.9823556669497,-4.900261802857143,,True,P3m1,156,Trigonal,3m,FiM,,"{'materials': True, 'thermo': True, 'xas': False, 'grain_boundaries': False, 'chemenv': True, 'electronic_structure': True, 'absorption': False, 'bandstructure': False, 'dos': False, 'magnetism': True, 'elasticity': False, 'dielectric': False, 'piezoelectric': False, 'surface_properties': False, 'oxi_states': True, 'provenance': True, 'charge_density': True, 'eos': False, 'phonon': False, 'insertion_electrodes': False, 'substrates': False}",,,,,,
mp-crgmj,Ti3S4,-1.487872079999999,0.22212820499999802,False,0.0,0.0010027,7,3.717000761259412,121.45163269538448,-7.235881637142858,,False,P-3m1,164,Trigonal,-3m,NM,,"{'materials': True, 'thermo': True, 'xas': False, 'grain_boundaries': False, 'chemenv': True, 'electronic_structure': True, 'absorption': False, 'bandstructure': True, 'dos': True, 'magnetism': True, 'elasticity': False, 'dielectric': False, 'piezoelectric': False, 'surface_properties': False, 'oxi_states': True, 'provenance': True, 'charge_density': True, 'eos': False, 'phonon': False, 'insertion_electrodes': False, 'substrates': False}",,,,,,
mp-cqtid,Ti5S8,-1.696053202820513,0.0,True,0.0,0.0005145,13,3.490073400204189,235.92243040526603,-7.278871801538463,,False,C2/m,12,Monoclinic,2/m,NM,,"{'materials': True, 'thermo': True, 'xas': False, 'grain_boundaries': False, 'chemenv': True, 'electronic_structure': True, 'absorption': False, 'bandstructure': False, 'dos': True, 'magnetism': True, 'elasticity': False, 'dielectric': False, 'piezoelectric': False, 'surface_properties': False, 'oxi_states': True, 'provenance': True, 'charge_density': True, 'eos': False, 'phonon': False, 'insertion_electrodes': False, 'substrates': False}",,,,,,
mp-crgoi,Ti5S8,-1.584540012051281,0.11151319076923101,False,0.0,0.0315062,13,3.414817625265709,241.121690592444,-7.167358610769231,,False,R3m,160,Trigonal,3m,NM,,"{'materials': True, 'thermo': True, 'xas': False, 'grain_boundaries': False, 'chemenv': True, 'electronic_structure': True, 'absorption': False, 'bandstructure': False, 'dos': False, 'magnetism': True, 'elasticity': False, 'dielectric': False, 'piezoelectric': False, 'surface_properties': False, 'oxi_states': True, 'provenance': True, 'charge_density': True, 'eos': False, 'phonon': False, 'insertion_electrodes': False, 'substrates': False}",,,,,,
mp-crgyv,Ti5S8,-1.664435762307691,0.031617440512821005,False,0.0,0.020909499999999002,39,3.429577789391487,720.2518643104203,-7.247254361025641,,False,Pm,6,Monoclinic,m,NM,,"{'materials': True, 'thermo': True, 'xas': False, 'grain_boundaries': False, 'chemenv': True, 'electronic_structure': True, 'absorption': False, 'bandstructure': False, 'dos': False, 'magnetism': True, 'elasticity': False, 'dielectric': False, 'piezoelectric': False, 'surface_properties': False, 'oxi_states': True, 'provenance': True, 'charge_density': True, 'eos': False, 'phonon': False, 'insertion_electrodes': False, 'substrates': False}",,,,,,
mp-crgnz,Ti5S8,-1.6588118735897441,0.037241329230768005,False,0.0,2.3448229,13,3.397065052582594,242.38175781855261,-7.241630472307694,,True,Pm,6,Monoclinic,m,FM,,"{'materials': True, 'thermo': True, 'xas': False, 'grain_boundaries': False, 'chemenv': True, 'electronic_structure': True, 'absorption': False, 'bandstructure': False, 'dos': True, 'magnetism': True, 'elasticity': False, 'dielectric': False, 'piezoelectric': False, 'surface_properties': False, 'oxi_states': True, 'provenance': True, 'charge_density': True, 'eos': False, 'phonon': False, 'insertion_electrodes': False, 'substrates': False}",,,,,,
mp-crgoc,Ti5S8,-1.660958817435896,0.035094385384616004,False,0.0,0.0401146,13,3.453726689820801,238.40525693469533,-7.243777416153846,,False,Cm,8,Monoclinic,m,NM,,"{'materials': True, 'thermo': True, 'xas': False, 'grain_boundaries': False, 'chemenv': True, 'electronic_structure': True, 'absorption': False, 'bandstructure': False, 'dos': True, 'magnetism': True, 'elasticity': False, 'dielectric': False, 'piezoelectric': False, 'surface_properties': False, 'oxi_states': True, 'provenance': True, 'charge_density': True, 'eos': False, 'phonon': False, 'insertion_electrodes': False, 'substrates': False}",,,,,,
mp-bminx,Ti7S12,-1.672311393333331,0.0,True,0.0,0.0459037,38,3.390550591130881,705.0992777867689,-7.194270165263156,,False,P-1,2,Triclinic,-1,NM,,"{'materials': True, 'thermo': True, 'xas': True, 'grain_boundaries': False, 'chemenv': True, 'electronic_structure': True, 'absorption': False, 'bandstructure': False, 'dos': False, 'magnetism': True, 'elasticity': False, 'dielectric': False, 'piezoelectric': False, 'surface_properties': False, 'oxi_states': True, 'provenance': True, 'charge_density': True, 'eos': False, 'phonon': False, 'insertion_electrodes': False, 'substrates': True}",,,,,,
mp-bmteo,Ti8S3,-1.018810084696969,0.007596891666665001,False,0.0,1.691743499999999,44,4.732975207820129,672.402206717294,-7.889367291136364,,True,C2/m,12,Monoclinic,2/m,FM,icsd-2032,"{'materials': True, 'thermo': True, 'xas': True, 'grain_boundaries': False, 'chemenv': True, 'electronic_structure': True, 'absorption': False, 'bandstructure': False, 'dos': False, 'magnetism': True, 'elasticity': False, 'dielectric': False, 'piezoelectric': False, 'surface_properties': False, 'oxi_states': True, 'provenance': True, 'charge_density': True, 'eos': False, 'phonon': False, 'insertion_electrodes': False, 'substrates': True}",,,,,,
mp-bmind,Ti9S10,-1.676394082719297,0.039519474122807006,False,0.0,0.007353999999999,57,4.163818216876962,899.0428963656954,-7.593941728771929,,False,P1,1,Triclinic,1,NM,,"{'materials': True, 'thermo': True, 'xas': True, 'grain_boundaries': False, 'chemenv': True, 'electronic_structure': True, 'absorption': False, 'bandstructure': False, 'dos': False, 'magnetism': True, 'elasticity': False, 'dielectric': False, 'piezoelectric': False, 'surface_properties': False, 'oxi_states': True, 'provenance': True, 'charge_density': True, 'eos': False, 'phonon': False, 'insertion_electrodes': False, 'substrates': True}",,,,,,
mp-bmyxv,Ti13S24,-1.6392080771171171,0.001580217567565,False,0.0,2.7e-06,37,3.246731468609211,711.8512177402151,-7.097017301891893,,False,P-1,2,Triclinic,-1,NM,,"{'materials': True, 'thermo': True, 'xas': False, 'grain_boundaries': False, 'chemenv': True, 'electronic_structure': True, 'absorption': False, 'bandstructure': False, 'dos': False, 'magnetism': True, 'elasticity': False, 'dielectric': False, 'piezoelectric': False, 'surface_properties': False, 'oxi_states': True, 'provenance': True, 'charge_density': True, 'eos': False, 'phonon': False, 'insertion_electrodes': False, 'substrates': True}",,,,,,
mp-biueq,VS2,1.056313655,2.2572998933333333,False,0.0,0.251243899999999,3,1.409588853833271,135.5577696876874,-4.729920176666667,,True,P1,1,Triclinic,1,FM,,"{'materials': True, 'thermo': True, 'xas': True, 'grain_boundaries': False, 'chemenv': False, 'electronic_structure': True, 'absorption': False, 'bandstructure': True, 'dos': True, 'magnetism': True, 'elasticity': False, 'dielectric': False, 'piezoelectric': False, 'surface_properties': False, 'oxi_states': True, 'provenance': True, 'charge_density': True, 'eos': False, 'phonon': False, 'insertion_electrodes': False, 'substrates': True}",,,,,,
mp-blhpm,VS2,0.740047435,1.941033673333333,False,0.0,0.0436716,3,1.445805970607009,132.16207782157525,-5.046186396666667,,False,P1,1,Triclinic,1,NM,,"{'materials': True, 'thermo': True, 'xas': True, 'grain_boundaries': False, 'chemenv': False, 'electronic_structure': True, 'absorption': False, 'bandstructure': True, 'dos': True, 'magnetism': True, 'elasticity': False, 'dielectric': False, 'piezoelectric': False, 'surface_properties': False, 'oxi_states': True, 'provenance': True, 'charge_density': True, 'eos': False, 'phonon': False, 'insertion_electrodes': False, 'substrates': True}",,,,,,
mp-bwiay,VS2,0.728974228333333,1.929960466666666,False,0.0,0.010377599999999002,3,1.575633587393975,121.2723076805569,-5.057259603333334,,False,P1,1,Triclinic,1,NM,,"{'materials': True, 'thermo': True, 'xas': True, 'grain_boundaries': False, 'chemenv': False, 'electronic_structure': True, 'absorption': False, 'bandstructure': True, 'dos': True, 'magnetism': True, 'elasticity': False, 'dielectric': False, 'piezoelectric': False, 'surface_properties': False, 'oxi_states': True, 'provenance': True, 'charge_density': True, 'eos': False, 'phonon': False, 'insertion_electrodes': False, 'substrates': True}",,,,,,
mp-cpbtb,VS2,-1.181916868333332,0.019069370000000002,False,0.0,2.017142,6,1.854091412699375,206.1179075567445,-6.9681507,,True,C2/m,12,Monoclinic,2/m,FM,icsd-153507,"{'materials': True, 'thermo': True, 'xas': False, 'grain_boundaries': False, 'chemenv': True, 'electronic_structure': True, 'absorption': False, 'bandstructure': True, 'dos': True, 'magnetism': True, 'elasticity': False, 'dielectric': False, 'piezoelectric': False, 'surface_properties': False, 'oxi_states': True, 'provenance': True, 'charge_density': True, 'eos': False, 'phonon': False, 'insertion_electrodes': False, 'substrates': False}",,,,,,