material_id,formula_pretty,formation_energy_per_atom,energy_above_hull,is_stable,band_gap,total_magnetization,nsites,density,volume,energy_per_atom,e_total,is_magnetic,space_group_symbol,space_group_number,crystal_system,point_group,ordering,icsd_ids,has_props,lattice_a,lattice_b,lattice_c,lattice_alpha,lattice_beta,lattice_gamma
mp-ugg,PdS2,-0.338315096875,0.0,True,0.42099999999999904,0.0,12,4.711000020437429,240.46269291447265,-13.347824451666668,11.537521243333332,False,Pbca,61,Orthorhombic,mmm,NM,"icsd-16694,icsd-648747,icsd-648753,icsd-166276","{'materials': True, 'thermo': True, 'xas': True, 'grain_boundaries': False, 'chemenv': True, 'electronic_structure': True, 'absorption': False, 'bandstructure': True, 'dos': True, 'magnetism': True, 'elasticity': True, 'dielectric': True, 'piezoelectric': False, 'surface_properties': False, 'oxi_states': True, 'provenance': True, 'charge_density': True, 'eos': False, 'phonon': False, 'insertion_electrodes': False, 'substrates': True}",,,,,,
mp-bdyw,PdS,-0.45752569015624905,0.0,True,0.0,0.0,16,6.618503911829215,277.9597996182735,-15.95477110875,,False,P4_2/m,84,Tetragonal,4/m,NM,"icsd-648756,icsd-61063,icsd-26766,icsd-648749","{'materials': True, 'thermo': True, 'xas': True, 'grain_boundaries': False, 'chemenv': True, 'electronic_structure': True, 'absorption': False, 'bandstructure': True, 'dos': True, 'magnetism': True, 'elasticity': False, 'dielectric': False, 'piezoelectric': False, 'surface_properties': False, 'oxi_states': True, 'provenance': True, 'charge_density': True, 'eos': False, 'phonon': False, 'insertion_electrodes': False, 'substrates': True}",,,,,,
mp-cpnbz,Pd3S,0.070075163046876,0.33215706,False,0.0,0.0020964,4,9.511635170256055,61.334237187478244,-19.15877435125,,False,Fm-3m,225,Cubic,m-3m,NM,,"{'materials': True, 'thermo': True, 'xas': False, 'grain_boundaries': False, 'chemenv': True, 'electronic_structure': True, 'absorption': False, 'bandstructure': True, 'dos': True, 'magnetism': True, 'elasticity': False, 'dielectric': False, 'piezoelectric': False, 'surface_properties': False, 'oxi_states': True, 'provenance': True, 'charge_density': True, 'eos': False, 'phonon': False, 'insertion_electrodes': False, 'substrates': False}",,,,,,
mp-bfuac,Pd3S,-0.262081896953123,0.0,True,0.0,0.0,8,9.224573992911777,126.48581669387112,-19.49093141125,,False,Cmcm,63,Orthorhombic,mmm,NM,icsd-24347,"{'materials': True, 'thermo': True, 'xas': True, 'grain_boundaries': False, 'chemenv': True, 'electronic_structure': True, 'absorption': False, 'bandstructure': True, 'dos': True, 'magnetism': True, 'elasticity': True, 'dielectric': False, 'piezoelectric': False, 'surface_properties': False, 'oxi_states': True, 'provenance': True, 'charge_density': True, 'eos': False, 'phonon': False, 'insertion_electrodes': False, 'substrates': True}",,,,,,
mp-lot,Pd4S,-0.20709210956249802,0.002573407999999,False,0.0,2e-07,10,10.165853472077288,149.54050973262704,-20.182262443,,False,P-42_1c,114,Tetragonal,-42m,NM,"icsd-648755,icsd-23865,icsd-648748","{'materials': True, 'thermo': True, 'xas': True, 'grain_boundaries': False, 'chemenv': True, 'electronic_structure': True, 'absorption': False, 'bandstructure': True, 'dos': True, 'magnetism': True, 'elasticity': False, 'dielectric': False, 'piezoelectric': False, 'surface_properties': False, 'oxi_states': True, 'provenance': True, 'charge_density': True, 'eos': False, 'phonon': False, 'insertion_electrodes': False, 'substrates': True}",,,,,,
mp-pd,Pd16S7,-0.306646519551629,0.0,True,0.0,3.6e-06,23,8.801763986477079,363.5804573482684,-18.724277752173915,,False,I-43m,217,Cubic,-43m,NM,"icsd-77887,icsd-648746,icsd-32053","{'materials': True, 'thermo': True, 'xas': True, 'grain_boundaries': False, 'chemenv': True, 'electronic_structure': True, 'absorption': False, 'bandstructure': True, 'dos': True, 'magnetism': True, 'elasticity': False, 'dielectric': False, 'piezoelectric': False, 'surface_properties': False, 'oxi_states': True, 'provenance': True, 'charge_density': True, 'eos': False, 'phonon': False, 'insertion_electrodes': False, 'substrates': True}",,,,,,
mp-bwqe,Ag2S,-0.061040652048610006,0.057333213888888006,False,0.6242999999999991,0.0019793,9,6.338404497074927,194.75748462317284,-16.97630449111111,17.973746293333335,False,P1,1,Triclinic,1,NM,,"{'materials': True, 'thermo': True, 'xas': True, 'grain_boundaries': False, 'chemenv': True, 'electronic_structure': True, 'absorption': False, 'bandstructure': True, 'dos': True, 'magnetism': True, 'elasticity': False, 'dielectric': True, 'piezoelectric': True, 'surface_properties': False, 'oxi_states': True, 'provenance': True, 'charge_density': True, 'eos': False, 'phonon': False, 'insertion_electrodes': False, 'substrates': True}",,,,,,
mp-elgps,Ag2S,-0.10503542927083401,0.013338436666664,False,1.0891,0.0,6,6.046580348456434,136.10466800899007,-17.020299268333336,,False,P2_1/m,11,Monoclinic,2/m,NM,,"{'materials': True, 'thermo': True, 'xas': False, 'grain_boundaries': False, 'chemenv': True, 'electronic_structure': True, 'absorption': False, 'bandstructure': False, 'dos': False, 'magnetism': True, 'elasticity': True, 'dielectric': False, 'piezoelectric': False, 'surface_properties': False, 'oxi_states': True, 'provenance': True, 'charge_density': False, 'eos': False, 'phonon': False, 'insertion_electrodes': False, 'substrates': False}",,,,,,
mp-bfqvh,Ag2S,-0.11835359593749901,2.027000000026646e-05,False,1.0853,0.0,6,6.697040973874489,122.88528831267233,-17.033617435,,False,P2_1/m,11,Monoclinic,2/m,NM,icsd-98452,"{'materials': True, 'thermo': True, 'xas': True, 'grain_boundaries': False, 'chemenv': True, 'electronic_structure': True, 'absorption': False, 'bandstructure': True, 'dos': True, 'magnetism': True, 'elasticity': False, 'dielectric': False, 'piezoelectric': False, 'surface_properties': False, 'oxi_states': True, 'provenance': True, 'charge_density': True, 'eos': False, 'phonon': False, 'insertion_electrodes': False, 'substrates': True}",,,,,,
mp-gbkap,Ag2S,-0.104826904270834,0.013546961666666002,False,0.6684999999999991,0.0,6,6.087581006200281,135.18798519118562,-17.020090743333334,,False,P4/nmm,129,Tetragonal,4/mmm,NM,,"{'materials': True, 'thermo': True, 'xas': False, 'grain_boundaries': False, 'chemenv': True, 'electronic_structure': True, 'absorption': False, 'bandstructure': False, 'dos': False, 'magnetism': True, 'elasticity': False, 'dielectric': False, 'piezoelectric': False, 'surface_properties': False, 'oxi_states': True, 'provenance': True, 'charge_density': False, 'eos': False, 'phonon': False, 'insertion_electrodes': False, 'substrates': False}",,,,,,
mp-cktng,Ag2S,-0.072879224270832,0.045494641666667,False,1.183999999999999,0.002394,12,6.204328485489086,265.288278285437,-16.988143063333332,,False,P2_1/c,14,Monoclinic,2/m,NM,"icsd-262637,icsd-262636","{'materials': True, 'thermo': True, 'xas': True, 'grain_boundaries': False, 'chemenv': True, 'electronic_structure': True, 'absorption': False, 'bandstructure': False, 'dos': False, 'magnetism': True, 'elasticity': False, 'dielectric': False, 'piezoelectric': False, 'surface_properties': False, 'oxi_states': True, 'provenance': True, 'charge_density': True, 'eos': False, 'phonon': False, 'insertion_electrodes': False, 'substrates': False}",,,,,,
mp-ekvtp,Ag2S,-0.11816704427083301,0.00020682166666500002,False,1.5694,0.0,12,6.702851253011478,245.5575336082837,-17.033430883333335,,False,P2_1/c,14,Monoclinic,2/m,NM,"icsd-262633,icsd-44507,icsd-182916,icsd-173999,icsd-262632,icsd-30445","{'materials': True, 'thermo': True, 'xas': False, 'grain_boundaries': False, 'chemenv': True, 'electronic_structure': True, 'absorption': False, 'bandstructure': False, 'dos': False, 'magnetism': True, 'elasticity': False, 'dielectric': False, 'piezoelectric': False, 'surface_properties': False, 'oxi_states': True, 'provenance': True, 'charge_density': False, 'eos': False, 'phonon': False, 'insertion_electrodes': False, 'substrates': False}",,,,,,
mp-bitdl,Ag2S,-0.089347979270833,0.029025886666666,False,1.000699999999999,0.0031848,12,6.674811817819036,246.58906749081873,-17.004611818333334,,False,P2_1/c,14,Monoclinic,2/m,NM,"icsd-262633,icsd-44507,icsd-182916,icsd-173999,icsd-262632,icsd-262637,icsd-30445","{'materials': True, 'thermo': True, 'xas': True, 'grain_boundaries': False, 'chemenv': True, 'electronic_structure': True, 'absorption': False, 'bandstructure': True, 'dos': True, 'magnetism': True, 'elasticity': False, 'dielectric': False, 'piezoelectric': False, 'surface_properties': False, 'oxi_states': True, 'provenance': True, 'charge_density': True, 'eos': False, 'phonon': False, 'insertion_electrodes': False, 'substrates': True}",,,,,,
mp-evxih,Ag2S,-0.104605967604167,0.013767898333334002,False,0.6818999999999991,0.0,6,6.074255490692897,135.4845564493155,-17.019869806666666,,False,P2_12_12,18,Orthorhombic,222,NM,,"{'materials': True, 'thermo': True, 'xas': False, 'grain_boundaries': False, 'chemenv': True, 'electronic_structure': True, 'absorption': False, 'bandstructure': False, 'dos': False, 'magnetism': True, 'elasticity': False, 'dielectric': False, 'piezoelectric': False, 'surface_properties': False, 'oxi_states': True, 'provenance': True, 'charge_density': False, 'eos': False, 'phonon': False, 'insertion_electrodes': False, 'substrates': False}",,,,,,
mp-ckiwc,Ag2S,-0.09316894343749901,0.025204922500002003,False,0.0,0.0,12,7.508354932920647,219.2138806086577,-17.008432782499998,,False,P2_12_12_1,19,Orthorhombic,222,NM,"icsd-262635,icsd-262634","{'materials': True, 'thermo': True, 'xas': True, 'grain_boundaries': False, 'chemenv': True, 'electronic_structure': True, 'absorption': False, 'bandstructure': True, 'dos': True, 'magnetism': True, 'elasticity': False, 'dielectric': False, 'piezoelectric': False, 'surface_properties': False, 'oxi_states': True, 'provenance': True, 'charge_density': True, 'eos': False, 'phonon': False, 'insertion_electrodes': False, 'substrates': False}",,,,,,
mp-bwqu,Ag2S,-0.10776626593749901,0.0106076,False,1.442799999999999,0.0009781,6,6.3750554217582565,129.0918676734217,-17.023030105,11.486981866666667,False,P-1,2,Triclinic,-1,NM,,"{'materials': True, 'thermo': True, 'xas': False, 'grain_boundaries': False, 'chemenv': True, 'electronic_structure': True, 'absorption': False, 'bandstructure': False, 'dos': False, 'magnetism': True, 'elasticity': False, 'dielectric': True, 'piezoelectric': False, 'surface_properties': False, 'oxi_states': True, 'provenance': True, 'charge_density': True, 'eos': False, 'phonon': False, 'insertion_electrodes': False, 'substrates': True}",,,,,,
mp-cryes,Ag2S,-0.041446694270833,0.076927171666667,False,0.0,3.52e-05,3,6.7483062986590365,60.97587857562714,-16.956710533333332,,False,Fm-3m,225,Cubic,m-3m,NM,,"{'materials': True, 'thermo': True, 'xas': False, 'grain_boundaries': False, 'chemenv': True, 'electronic_structure': True, 'absorption': False, 'bandstructure': True, 'dos': True, 'magnetism': True, 'elasticity': False, 'dielectric': False, 'piezoelectric': False, 'surface_properties': False, 'oxi_states': True, 'provenance': True, 'charge_density': True, 'eos': False, 'phonon': False, 'insertion_electrodes': False, 'substrates': False}",,,,,,
mp-bwin,Ag2S,-0.10845525260416601,0.009918613333333002,False,1.3001,0.0,6,6.422762894340639,128.132989564584,-17.023719091666667,11.70686838412252,False,Cmc2_1,36,Orthorhombic,mm2,NM,,"{'materials': True, 'thermo': True, 'xas': True, 'grain_boundaries': False, 'chemenv': True, 'electronic_structure': True, 'absorption': False, 'bandstructure': True, 'dos': True, 'magnetism': True, 'elasticity': False, 'dielectric': True, 'piezoelectric': True, 'surface_properties': False, 'oxi_states': True, 'provenance': True, 'charge_density': False, 'eos': False, 'phonon': False, 'insertion_electrodes': False, 'substrates': True}",,,,,,
mp-btyj,Ag2S,-0.11352241760416601,0.0048514483333330005,False,1.3634,0.0,6,6.093478394225376,135.05714760492967,-17.028786256666667,9.684604006666666,False,P2_1,4,Monoclinic,2,NM,icsd-98454,"{'materials': True, 'thermo': True, 'xas': True, 'grain_boundaries': False, 'chemenv': True, 'electronic_structure': True, 'absorption': False, 'bandstructure': True, 'dos': True, 'magnetism': True, 'elasticity': False, 'dielectric': True, 'piezoelectric': True, 'surface_properties': False, 'oxi_states': True, 'provenance': True, 'charge_density': True, 'eos': False, 'phonon': False, 'insertion_electrodes': False, 'substrates': True}",,,,,,
mp-bfwll,Ag2S,-0.029453977604167004,0.088919888333332,False,0.37009999999999904,0.001245899999999,6,6.45649477801871,127.46356021508139,-16.944717816666667,28.813298246666665,False,P2_1,4,Monoclinic,2,NM,icsd-98453,"{'materials': True, 'thermo': True, 'xas': True, 'grain_boundaries': False, 'chemenv': True, 'electronic_structure': True, 'absorption': False, 'bandstructure': True, 'dos': True, 'magnetism': True, 'elasticity': False, 'dielectric': True, 'piezoelectric': True, 'surface_properties': False, 'oxi_states': True, 'provenance': True, 'charge_density': True, 'eos': False, 'phonon': False, 'insertion_electrodes': False, 'substrates': True}",,,,,,
mp-djmyx,Ag2S,-0.223968058819444,0.0035640749999990002,False,0.9741999999999991,0.0,6,6.512238384867619,126.37249472142531,-3.49115535,,False,Cmcm,63,Orthorhombic,mmm,NM,,"{'materials': True, 'thermo': True, 'xas': False, 'grain_boundaries': False, 'chemenv': True, 'electronic_structure': True, 'absorption': False, 'bandstructure': False, 'dos': False, 'magnetism': True, 'elasticity': True, 'dielectric': False, 'piezoelectric': False, 'surface_properties': False, 'oxi_states': True, 'provenance': True, 'charge_density': False, 'eos': False, 'phonon': False, 'insertion_electrodes': False, 'substrates': False}",,,,,,
mp-cboy,Ag2S,-0.10611317427083301,0.012260691666668001,False,1.0895,0.0,6,6.675568024896398,123.28056696405524,-17.021377013333332,,False,Cmcm,63,Orthorhombic,mmm,NM,,"{'materials': True, 'thermo': True, 'xas': True, 'grain_boundaries': False, 'chemenv': True, 'electronic_structure': True, 'absorption': False, 'bandstructure': True, 'dos': True, 'magnetism': True, 'elasticity': True, 'dielectric': False, 'piezoelectric': False, 'surface_properties': False, 'oxi_states': True, 'provenance': True, 'charge_density': True, 'eos': False, 'phonon': False, 'insertion_electrodes': False, 'substrates': True}",,,,,,
mp-bwnf,Ag2S,-0.024350414270832003,0.094023451666668,False,0.0,3.299999999999999e-06,6,6.996038716042829,117.6333986015792,-16.939614253333332,,False,Cmce,64,Orthorhombic,mmm,NM,,"{'materials': True, 'thermo': True, 'xas': True, 'grain_boundaries': False, 'chemenv': True, 'electronic_structure': True, 'absorption': False, 'bandstructure': True, 'dos': True, 'magnetism': True, 'elasticity': False, 'dielectric': False, 'piezoelectric': False, 'surface_properties': False, 'oxi_states': True, 'provenance': True, 'charge_density': True, 'eos': False, 'phonon': False, 'insertion_electrodes': False, 'substrates': True}",,,,,,
mp-cezf,Ag2S,-0.08414585760416701,0.034228008333332005,False,0.12020000000000002,0.0,6,6.7653013691568145,121.64540291852752,-16.999409696666667,26.491387309999997,False,Pc,7,Monoclinic,m,NM,,"{'materials': True, 'thermo': True, 'xas': True, 'grain_boundaries': False, 'chemenv': True, 'electronic_structure': True, 'absorption': False, 'bandstructure': True, 'dos': True, 'magnetism': True, 'elasticity': False, 'dielectric': True, 'piezoelectric': True, 'surface_properties': False, 'oxi_states': True, 'provenance': True, 'charge_density': True, 'eos': False, 'phonon': False, 'insertion_electrodes': False, 'substrates': True}",,,,,,
mp-dbhsi,Ag2S,-0.10626627927083301,0.012107586666665001,False,1.2299,5.6e-06,6,6.374803924267926,129.09696057998443,-17.021530118333335,,False,Cm,8,Monoclinic,m,NM,,"{'materials': True, 'thermo': True, 'xas': False, 'grain_boundaries': False, 'chemenv': True, 'electronic_structure': True, 'absorption': False, 'bandstructure': True, 'dos': True, 'magnetism': True, 'elasticity': False, 'dielectric': False, 'piezoelectric': False, 'surface_properties': False, 'oxi_states': True, 'provenance': True, 'charge_density': False, 'eos': False, 'phonon': False, 'insertion_electrodes': False, 'substrates': False}",,,,,,
mp-cpiju,Ag3S,0.061218283880212006,0.14999868333333302,False,0.0,0.000290699999999,8,8.177007044993303,144.45463049065503,-17.964198881666665,,False,P6_3/mmc,194,Hexagonal,6/mmm,NM,,"{'materials': True, 'thermo': True, 'xas': False, 'grain_boundaries': False, 'chemenv': True, 'electronic_structure': True, 'absorption': False, 'bandstructure': True, 'dos': True, 'magnetism': True, 'elasticity': False, 'dielectric': False, 'piezoelectric': False, 'surface_properties': False, 'oxi_states': True, 'provenance': True, 'charge_density': True, 'eos': False, 'phonon': False, 'insertion_electrodes': False, 'substrates': False}",,,,,,
mp-bqvz,Ag8S,0.229205100798607,0.268663056111108,False,0.0,0.00039969999999900005,9,7.81870529998439,190.08262996228714,-19.646467608888894,,False,F-43m,216,Cubic,-43m,NM,,"{'materials': True, 'thermo': True, 'xas': True, 'grain_boundaries': False, 'chemenv': True, 'electronic_structure': True, 'absorption': False, 'bandstructure': True, 'dos': True, 'magnetism': True, 'elasticity': False, 'dielectric': False, 'piezoelectric': False, 'surface_properties': False, 'oxi_states': True, 'provenance': True, 'charge_density': False, 'eos': False, 'phonon': False, 'insertion_electrodes': False, 'substrates': True}",,,,,,
mp-cgdcx,CdS,-0.524289781406249,0.252318607499999,False,1.5192,7.5999999999999975e-06,2,2.5826913192676173,92.89071457991083,-14.59380224,5.598404799853072,False,P3m1,156,Trigonal,3m,NM,,"{'materials': True, 'thermo': True, 'xas': False, 'grain_boundaries': False, 'chemenv': True, 'electronic_structure': True, 'absorption': False, 'bandstructure': True, 'dos': True, 'magnetism': True, 'elasticity': False, 'dielectric': True, 'piezoelectric': True, 'surface_properties': False, 'oxi_states': True, 'provenance': True, 'charge_density': True, 'eos': False, 'phonon': False, 'insertion_electrodes': False, 'substrates': True}",,,,,,
mp-zw,CdS,-0.7766083889062491,0.0,True,1.125,0.0,4,4.702284793707707,102.03892478274858,-14.8461208475,9.982347543312724,False,P6_3mc,186,Hexagonal,6mm,NM,"icsd-43599,icsd-246892,icsd-31074,icsd-67776,icsd-154188,icsd-620303,icsd-620319,icsd-41490,icsd-620327,icsd-154186,icsd-620325,icsd-60629,icsd-600365,icsd-659045,icsd-620306,icsd-154187,icsd-192568,icsd-602958,icsd-604522,icsd-620313,icsd-620308,icsd-620310,icsd-620323","{'materials': True, 'thermo': True, 'xas': True, 'grain_boundaries': False, 'chemenv': True, 'electronic_structure': True, 'absorption': True, 'bandstructure': True, 'dos': True, 'magnetism': True, 'elasticity': True, 'dielectric': True, 'piezoelectric': True, 'surface_properties': False, 'oxi_states': True, 'provenance': True, 'charge_density': True, 'eos': True, 'phonon': True, 'insertion_electrodes': False, 'substrates': True}",,,,,,
mp-gbryv,CdS,-0.524941121406248,0.2516672675,False,1.4908000000000001,0.0,2,2.62854959802318,91.27012188262536,-14.59445358,,False,P-6m2,187,Hexagonal,-6m2,NM,,"{'materials': True, 'thermo': True, 'xas': False, 'grain_boundaries': False, 'chemenv': True, 'electronic_structure': True, 'absorption': False, 'bandstructure': False, 'dos': False, 'magnetism': True, 'elasticity': False, 'dielectric': False, 'piezoelectric': False, 'surface_properties': False, 'oxi_states': True, 'provenance': True, 'charge_density': False, 'eos': False, 'phonon': False, 'insertion_electrodes': False, 'substrates': False}",,,,,,