material_id,formula_pretty,formation_energy_per_atom,energy_above_hull,is_stable,band_gap,total_magnetization,nsites,density,volume,energy_per_atom,e_total,is_magnetic,space_group_symbol,space_group_number,crystal_system,point_group,ordering,icsd_ids,has_props,lattice_a,lattice_b,lattice_c,lattice_alpha,lattice_beta,lattice_gamma
mp-bwkad,Fe7S8,-0.612466297666665,0.162981921333333,False,0.0,5.6969178,30,5.429488202734369,396.01931911104964,-6.771754975666667,,True,P2_1,4,Monoclinic,2,FiM,,"{'materials': True, 'thermo': True, 'xas': True, 'grain_boundaries': False, 'chemenv': False, 'electronic_structure': True, 'absorption': False, 'bandstructure': False, 'dos': False, 'magnetism': True, 'elasticity': False, 'dielectric': False, 'piezoelectric': False, 'surface_properties': False, 'oxi_states': False, 'provenance': True, 'charge_density': True, 'eos': False, 'phonon': False, 'insertion_electrodes': False, 'substrates': True}",,,,,,
mp-bmywx,Fe7S12,-0.590070550131578,0.238451485394736,False,0.1398,0.0026782,76,4.673514271830085,1102.4439223649958,-6.323697972236842,,False,Pc,7,Monoclinic,m,NM,,"{'materials': True, 'thermo': True, 'xas': False, 'grain_boundaries': False, 'chemenv': True, 'electronic_structure': True, 'absorption': False, 'bandstructure': False, 'dos': False, 'magnetism': True, 'elasticity': False, 'dielectric': False, 'piezoelectric': False, 'surface_properties': False, 'oxi_states': True, 'provenance': True, 'charge_density': True, 'eos': False, 'phonon': False, 'insertion_electrodes': False, 'substrates': True}",,,,,,
mp-crtkk,Fe11S12,-0.598720062826086,0.17046478652173902,False,0.0,14.1221698,46,5.573466424593577,595.3218128821404,-6.808242056739131,,True,Cc,9,Monoclinic,m,FiM,,"{'materials': True, 'thermo': True, 'xas': False, 'grain_boundaries': False, 'chemenv': True, 'electronic_structure': True, 'absorption': False, 'bandstructure': False, 'dos': False, 'magnetism': True, 'elasticity': False, 'dielectric': False, 'piezoelectric': False, 'surface_properties': False, 'oxi_states': True, 'provenance': True, 'charge_density': True, 'eos': False, 'phonon': False, 'insertion_electrodes': False, 'substrates': False}",,,,,,
mp-chhpa,CoS2,-0.13739161187499901,0.317421816666666,False,0.0,1.94e-05,6,3.252428335131963,125.66071986937258,-9.904826806666668,,False,I-42d,122,Tetragonal,-42m,NM,,"{'materials': True, 'thermo': True, 'xas': True, 'grain_boundaries': False, 'chemenv': True, 'electronic_structure': True, 'absorption': False, 'bandstructure': True, 'dos': True, 'magnetism': True, 'elasticity': False, 'dielectric': False, 'piezoelectric': False, 'surface_properties': False, 'oxi_states': True, 'provenance': True, 'charge_density': True, 'eos': False, 'phonon': False, 'insertion_electrodes': False, 'substrates': True}",,,,,,
mp-cnhwc,CoS,-0.37589248890624904,0.084537027916667,False,0.0,1.1458359,4,4.591952859758208,65.81341856176692,-11.0100266675,,True,P4/nmm,129,Tetragonal,4/mmm,FM,,"{'materials': True, 'thermo': True, 'xas': False, 'grain_boundaries': False, 'chemenv': True, 'electronic_structure': True, 'absorption': False, 'bandstructure': True, 'dos': True, 'magnetism': True, 'elasticity': False, 'dielectric': False, 'piezoelectric': False, 'surface_properties': False, 'oxi_states': True, 'provenance': True, 'charge_density': True, 'eos': False, 'phonon': False, 'insertion_electrodes': False, 'substrates': False}",,,,,,
mp-dazay,CoS2,-0.336298066874999,0.11851536166666601,False,0.0,0.3546297,3,3.225853655074376,63.347958341712854,-10.103733261666667,,True,R-3m,166,Trigonal,-3m,FM,,"{'materials': True, 'thermo': True, 'xas': False, 'grain_boundaries': False, 'chemenv': True, 'electronic_structure': True, 'absorption': False, 'bandstructure': True, 'dos': True, 'magnetism': True, 'elasticity': False, 'dielectric': False, 'piezoelectric': False, 'surface_properties': False, 'oxi_states': True, 'provenance': True, 'charge_density': True, 'eos': False, 'phonon': False, 'insertion_electrodes': True, 'substrates': True}",,,,,,
mp-bxa,CoS,-0.27557334911458403,0.18485616770833202,False,0.0,4.9500000000000004e-05,4,6.063260701836613,49.84316697509426,-10.909707527708335,,False,P6_3/mmc,194,Hexagonal,6/mmm,NM,"icsd-624831,icsd-624857,icsd-624842,icsd-657109,icsd-29305,icsd-601338","{'materials': True, 'thermo': True, 'xas': True, 'grain_boundaries': False, 'chemenv': True, 'electronic_structure': True, 'absorption': False, 'bandstructure': True, 'dos': True, 'magnetism': True, 'elasticity': True, 'dielectric': False, 'piezoelectric': False, 'surface_properties': False, 'oxi_states': True, 'provenance': True, 'charge_density': True, 'eos': False, 'phonon': False, 'insertion_electrodes': False, 'substrates': True}",,,,,,
mp-dbq,CoS2,-0.454813428541667,0.0,True,0.0,4.0000004,12,4.849095401441955,168.5685481851701,-10.222248623333334,,True,Pa-3,205,Cubic,m-3,FM,"icsd-43715,icsd-53068,icsd-164456,icsd-624832,icsd-624851,icsd-624848,icsd-164458,icsd-624855,icsd-86351,icsd-164455,icsd-624853,icsd-624849,icsd-164457,icsd-624856,icsd-56017,icsd-53067,icsd-624838,icsd-624845,icsd-600679,icsd-624852","{'materials': True, 'thermo': True, 'xas': True, 'grain_boundaries': False, 'chemenv': True, 'electronic_structure': True, 'absorption': False, 'bandstructure': True, 'dos': True, 'magnetism': True, 'elasticity': True, 'dielectric': False, 'piezoelectric': False, 'surface_properties': False, 'oxi_states': True, 'provenance': True, 'charge_density': True, 'eos': False, 'phonon': False, 'insertion_electrodes': True, 'substrates': True}",,,,,,
mp-dbdgn,CoS2,-0.35631343937500004,0.09849998916666701,False,0.0,0.0005963,12,4.051943093970883,201.73160206734354,-10.123748634166667,,False,Fd-3m,227,Cubic,m-3m,NM,,"{'materials': True, 'thermo': True, 'xas': False, 'grain_boundaries': False, 'chemenv': True, 'electronic_structure': True, 'absorption': False, 'bandstructure': False, 'dos': True, 'magnetism': True, 'elasticity': False, 'dielectric': False, 'piezoelectric': False, 'surface_properties': False, 'oxi_states': True, 'provenance': True, 'charge_density': True, 'eos': False, 'phonon': False, 'insertion_electrodes': True, 'substrates': True}",,,,,,
mp-bwjmf,CoS2,-0.452915192708333,0.0018982358333330001,False,0.0,4.0121774,12,4.867246596507061,167.9399133832789,-10.2203503875,,True,Pbca,61,Orthorhombic,mmm,FM,,"{'materials': True, 'thermo': True, 'xas': True, 'grain_boundaries': False, 'chemenv': True, 'electronic_structure': True, 'absorption': False, 'bandstructure': True, 'dos': True, 'magnetism': True, 'elasticity': False, 'dielectric': False, 'piezoelectric': False, 'surface_properties': False, 'oxi_states': True, 'provenance': True, 'charge_density': True, 'eos': False, 'phonon': False, 'insertion_electrodes': True, 'substrates': True}",,,,,,
mp-bmyxw,Co2S3,-0.46939558168750106,0.025580784999998003,False,0.0,1.7624425,40,4.717072073132108,602.8439595321713,-10.583510370000003,,True,I4_1/amd,141,Tetragonal,4/mmm,FM,,"{'materials': True, 'thermo': True, 'xas': False, 'grain_boundaries': False, 'chemenv': True, 'electronic_structure': True, 'absorption': False, 'bandstructure': False, 'dos': False, 'magnetism': True, 'elasticity': False, 'dielectric': False, 'piezoelectric': False, 'surface_properties': False, 'oxi_states': True, 'provenance': True, 'charge_density': True, 'eos': False, 'phonon': False, 'insertion_electrodes': False, 'substrates': True}",,,,,,
mp-cpjca,Co2S3,-0.48004295168749905,0.014933415000001001,False,0.0,9.83e-05,10,5.102914506050053,139.3154050785157,-10.59415774,,False,R-3c,167,Trigonal,-3m,NM,,"{'materials': True, 'thermo': True, 'xas': False, 'grain_boundaries': False, 'chemenv': True, 'electronic_structure': True, 'absorption': False, 'bandstructure': True, 'dos': True, 'magnetism': True, 'elasticity': False, 'dielectric': False, 'piezoelectric': False, 'surface_properties': False, 'oxi_states': True, 'provenance': True, 'charge_density': True, 'eos': False, 'phonon': False, 'insertion_electrodes': False, 'substrates': False}",,,,,,
mp-cpjcf,Co3S,0.256451934765625,0.489732716718748,False,0.0,9.8793764,8,7.684714069798743,90.26433511293399,-11.677730719531251,,True,P6_3/mmc,194,Hexagonal,6/mmm,FM,,"{'materials': True, 'thermo': True, 'xas': False, 'grain_boundaries': False, 'chemenv': True, 'electronic_structure': True, 'absorption': False, 'bandstructure': True, 'dos': True, 'magnetism': True, 'elasticity': False, 'dielectric': False, 'piezoelectric': False, 'surface_properties': False, 'oxi_states': True, 'provenance': True, 'charge_density': True, 'eos': False, 'phonon': False, 'insertion_electrodes': False, 'substrates': False}",,,,,,
mp-bkh,Co3S4,-0.5121890544642861,0.0,True,0.0,5.9407159,14,4.767149073118238,212.52255835244327,-10.774880811428572,,True,Fd-3m,227,Cubic,m-3m,FM,"icsd-106489,icsd-31095,icsd-24212,icsd-624840,icsd-56125,icsd-25560","{'materials': True, 'thermo': True, 'xas': True, 'grain_boundaries': False, 'chemenv': True, 'electronic_structure': True, 'absorption': False, 'bandstructure': True, 'dos': True, 'magnetism': True, 'elasticity': False, 'dielectric': False, 'piezoelectric': False, 'surface_properties': False, 'oxi_states': True, 'provenance': True, 'charge_density': True, 'eos': False, 'phonon': False, 'insertion_electrodes': False, 'substrates': True}",,,,,,
mp-cgf,Co9S8,-0.439116766029411,0.0,True,0.0,2e-07,17,5.697252596911768,229.35780232493886,-11.226197824117648,,False,Fm-3m,225,Cubic,m-3m,NM,"icsd-40046,icsd-624834,icsd-23929,icsd-660368,icsd-31753,icsd-657415,icsd-600664","{'materials': True, 'thermo': True, 'xas': True, 'grain_boundaries': False, 'chemenv': True, 'electronic_structure': True, 'absorption': False, 'bandstructure': True, 'dos': True, 'magnetism': True, 'elasticity': False, 'dielectric': False, 'piezoelectric': False, 'surface_properties': False, 'oxi_states': True, 'provenance': True, 'charge_density': True, 'eos': False, 'phonon': False, 'insertion_electrodes': False, 'substrates': True}",,,,,,
mp-chhpj,NiS2,-0.211133334999999,0.38039320333333304,False,0.0,0.00020789999999900003,6,3.502689883856152,116.4551020817773,-4.896110703333334,,False,I-42d,122,Tetragonal,-42m,NM,,"{'materials': True, 'thermo': True, 'xas': True, 'grain_boundaries': False, 'chemenv': True, 'electronic_structure': True, 'absorption': False, 'bandstructure': True, 'dos': True, 'magnetism': True, 'elasticity': False, 'dielectric': False, 'piezoelectric': False, 'surface_properties': False, 'oxi_states': True, 'provenance': True, 'charge_density': True, 'eos': False, 'phonon': False, 'insertion_electrodes': False, 'substrates': True}",,,,,,
mp-bwibk,NiS2,-0.285924461666666,0.305602076666667,False,0.0,0.1848436,6,3.869447963898158,105.41713231216168,-4.97090183,,False,P4/nmm,129,Tetragonal,4/mmm,NM,icsd-169576,"{'materials': True, 'thermo': True, 'xas': True, 'grain_boundaries': False, 'chemenv': True, 'electronic_structure': True, 'absorption': False, 'bandstructure': True, 'dos': True, 'magnetism': True, 'elasticity': False, 'dielectric': False, 'piezoelectric': False, 'surface_properties': False, 'oxi_states': True, 'provenance': True, 'charge_density': True, 'eos': False, 'phonon': False, 'insertion_electrodes': False, 'substrates': True}",,,,,,
mp-ckgmj,NiS2,-0.015561664999999001,0.575964873333333,False,0.0,0.0039602,3,4.441552677698093,45.91931443630663,-4.7005390333333334,,False,I4/mmm,139,Tetragonal,4/mmm,NM,icsd-169574,"{'materials': True, 'thermo': True, 'xas': False, 'grain_boundaries': False, 'chemenv': True, 'electronic_structure': True, 'absorption': False, 'bandstructure': True, 'dos': True, 'magnetism': True, 'elasticity': False, 'dielectric': False, 'piezoelectric': False, 'surface_properties': False, 'oxi_states': True, 'provenance': True, 'charge_density': True, 'eos': False, 'phonon': False, 'insertion_electrodes': False, 'substrates': False}",,,,,,
mp-cpdqk,NiS2,-0.591526538333332,0.0,True,0.24040000000000003,0.0,6,3.940790604191446,103.50869887667355,-5.276503906666667,,False,P2_1/c,14,Monoclinic,2/m,NM,,"{'materials': True, 'thermo': True, 'xas': False, 'grain_boundaries': False, 'chemenv': True, 'electronic_structure': True, 'absorption': False, 'bandstructure': True, 'dos': True, 'magnetism': True, 'elasticity': False, 'dielectric': False, 'piezoelectric': False, 'surface_properties': False, 'oxi_states': True, 'provenance': True, 'charge_density': True, 'eos': False, 'phonon': False, 'insertion_electrodes': False, 'substrates': False}",,,,,,
mp-bwjpj,NiS2,-0.569828999999999,0.021697538333333002,False,0.0,0.0001595,6,4.323290135292187,94.35085206413257,-5.254806368333333,,False,P2_1/c,14,Monoclinic,2/m,NM,,"{'materials': True, 'thermo': True, 'xas': True, 'grain_boundaries': False, 'chemenv': True, 'electronic_structure': True, 'absorption': False, 'bandstructure': True, 'dos': True, 'magnetism': True, 'elasticity': False, 'dielectric': False, 'piezoelectric': False, 'surface_properties': False, 'oxi_states': True, 'provenance': True, 'charge_density': True, 'eos': False, 'phonon': False, 'insertion_electrodes': False, 'substrates': True}",,,,,,
mp-chn,NiS,-0.6106647137499981,0.014181840833332002,False,0.0,0.0,6,5.54550911388632,81.52968414282847,-5.5694319100000005,,False,R3m,160,Trigonal,3m,NM,"icsd-646366,icsd-40053,icsd-40054,icsd-646339,icsd-151602,icsd-151601,icsd-29312,icsd-151600,icsd-654938,icsd-151599,icsd-52345","{'materials': True, 'thermo': True, 'xas': True, 'grain_boundaries': False, 'chemenv': True, 'electronic_structure': True, 'absorption': False, 'bandstructure': True, 'dos': True, 'magnetism': True, 'elasticity': True, 'dielectric': False, 'piezoelectric': False, 'surface_properties': False, 'oxi_states': True, 'provenance': True, 'charge_density': True, 'eos': False, 'phonon': False, 'insertion_electrodes': False, 'substrates': True}",,,,,,
mp-dcicf,NiS2,-0.556547261666666,0.034979276666666004,False,0.527899999999999,0.0,3,3.490224345835394,58.43551410556151,-5.241524630000001,,False,R-3m,166,Trigonal,-3m,NM,,"{'materials': True, 'thermo': True, 'xas': False, 'grain_boundaries': False, 'chemenv': True, 'electronic_structure': True, 'absorption': False, 'bandstructure': True, 'dos': True, 'magnetism': True, 'elasticity': False, 'dielectric': False, 'piezoelectric': False, 'surface_properties': False, 'oxi_states': True, 'provenance': True, 'charge_density': True, 'eos': False, 'phonon': False, 'insertion_electrodes': True, 'substrates': True}",,,,,,
mp-bwiat,NiS2,0.5124721683333341,1.103998706666667,False,0.0,0.0002832,3,4.825050603286978,42.269619691387085,-4.1725052,,False,P6/mmm,191,Hexagonal,6/mmm,NM,icsd-169578,"{'materials': True, 'thermo': True, 'xas': False, 'grain_boundaries': False, 'chemenv': True, 'electronic_structure': True, 'absorption': False, 'bandstructure': True, 'dos': True, 'magnetism': True, 'elasticity': False, 'dielectric': False, 'piezoelectric': False, 'surface_properties': False, 'oxi_states': True, 'provenance': True, 'charge_density': True, 'eos': False, 'phonon': False, 'insertion_electrodes': False, 'substrates': True}",,,,,,
mp-ww,NiS,-0.520097271249999,0.10474928333333101,False,0.0,1.98e-05,4,5.680562634107112,53.06089503079588,-5.4788644675,,False,P6_3/mmc,194,Hexagonal,6/mmm,NM,"icsd-646338,icsd-646340,icsd-602488,icsd-646348,icsd-646334,icsd-166473,icsd-151604,icsd-646345,icsd-49665,icsd-603606,icsd-29313,icsd-646355,icsd-646352,icsd-151603","{'materials': True, 'thermo': True, 'xas': True, 'grain_boundaries': False, 'chemenv': True, 'electronic_structure': True, 'absorption': False, 'bandstructure': True, 'dos': True, 'magnetism': True, 'elasticity': True, 'dielectric': False, 'piezoelectric': False, 'surface_properties': False, 'oxi_states': True, 'provenance': True, 'charge_density': True, 'eos': False, 'phonon': False, 'insertion_electrodes': False, 'substrates': True}",,,,,,
mp-bwiax,NiS2,-0.399649064999999,0.19187747333333402,False,0.0,0.0046529,6,3.815363923433188,106.91145488900824,-5.084626433333333,,False,P6_3/mmc,194,Hexagonal,6/mmm,NM,icsd-169572,"{'materials': True, 'thermo': True, 'xas': True, 'grain_boundaries': False, 'chemenv': True, 'electronic_structure': True, 'absorption': False, 'bandstructure': True, 'dos': True, 'magnetism': True, 'elasticity': False, 'dielectric': False, 'piezoelectric': False, 'surface_properties': False, 'oxi_states': True, 'provenance': True, 'charge_density': True, 'eos': False, 'phonon': False, 'insertion_electrodes': True, 'substrates': True}",,,,,,
mp-dju,NiS2,-0.5763651724999991,0.015161365833333001,False,0.0,1.48e-05,12,4.433847654386925,183.99644723096765,-5.261342540833334,,True,Pa-3,205,Cubic,m-3,AFM,"icsd-76684,icsd-43717,icsd-646337,icsd-646354,icsd-56016,icsd-166452,icsd-86354,icsd-646356,icsd-646347,icsd-166474,icsd-246917,icsd-68169,icsd-40328,icsd-68168,icsd-169569,icsd-68167,icsd-659263","{'materials': True, 'thermo': True, 'xas': True, 'grain_boundaries': False, 'chemenv': True, 'electronic_structure': True, 'absorption': False, 'bandstructure': True, 'dos': True, 'magnetism': True, 'elasticity': False, 'dielectric': False, 'piezoelectric': False, 'surface_properties': False, 'oxi_states': True, 'provenance': True, 'charge_density': True, 'eos': False, 'phonon': False, 'insertion_electrodes': False, 'substrates': True}",,,,,,
mp-bwhzx,NiS2,-0.124195494999999,0.46733104333333403,False,0.0,0.5714737,3,4.420402749652807,46.13902070544535,-4.809172863333333,,True,Fm-3m,225,Cubic,m-3m,FM,icsd-169573,"{'materials': True, 'thermo': True, 'xas': False, 'grain_boundaries': False, 'chemenv': True, 'electronic_structure': True, 'absorption': False, 'bandstructure': True, 'dos': True, 'magnetism': True, 'elasticity': False, 'dielectric': False, 'piezoelectric': False, 'surface_properties': False, 'oxi_states': True, 'provenance': True, 'charge_density': True, 'eos': False, 'phonon': False, 'insertion_electrodes': False, 'substrates': True}",,,,,,
mp-defhr,NiS2,-0.547762066666666,0.043764471666666006,False,0.0,8e-07,12,3.948978540031874,206.5881613942548,-5.232739435,,False,Fd-3m,227,Cubic,m-3m,NM,,"{'materials': True, 'thermo': True, 'xas': True, 'grain_boundaries': False, 'chemenv': True, 'electronic_structure': True, 'absorption': False, 'bandstructure': False, 'dos': True, 'magnetism': True, 'elasticity': False, 'dielectric': False, 'piezoelectric': False, 'surface_properties': False, 'oxi_states': True, 'provenance': True, 'charge_density': True, 'eos': False, 'phonon': False, 'insertion_electrodes': True, 'substrates': True}",,,,,,
mp-bwiad,NiS2,-0.570268324999999,0.021258213333333,False,0.0,2.3e-05,6,4.3505862655250525,93.75888284703359,-5.255245693333333,,True,Pnnm,58,Orthorhombic,mmm,AFM,icsd-169570,"{'materials': True, 'thermo': True, 'xas': True, 'grain_boundaries': False, 'chemenv': True, 'electronic_structure': True, 'absorption': False, 'bandstructure': True, 'dos': True, 'magnetism': True, 'elasticity': False, 'dielectric': False, 'piezoelectric': False, 'surface_properties': False, 'oxi_states': True, 'provenance': True, 'charge_density': True, 'eos': False, 'phonon': False, 'insertion_electrodes': False, 'substrates': True}",,,,,,
mp-bwjmy,NiS2,-0.49463912749999905,0.09688741083333301,False,0.0,0.0024028,12,4.485063659786453,181.895348172025,-5.179616495833334,,False,Pbcn,60,Orthorhombic,mmm,NM,icsd-169571,"{'materials': True, 'thermo': True, 'xas': False, 'grain_boundaries': False, 'chemenv': True, 'electronic_structure': True, 'absorption': False, 'bandstructure': True, 'dos': True, 'magnetism': True, 'elasticity': False, 'dielectric': False, 'piezoelectric': False, 'surface_properties': False, 'oxi_states': True, 'provenance': True, 'charge_density': True, 'eos': False, 'phonon': False, 'insertion_electrodes': False, 'substrates': True}",,,,,,