material_id,formula_pretty,formation_energy_per_atom,energy_above_hull,is_stable,band_gap,total_magnetization,nsites,density,volume,energy_per_atom,e_total,is_magnetic,space_group_symbol,space_group_number,crystal_system,point_group,ordering,icsd_ids,has_props,lattice_a,lattice_b,lattice_c,lattice_alpha,lattice_beta,lattice_gamma
mp-bgmc,K9Co2S7,-0.9639470497743041,0.10938498078703501,False,0.0,2.2859775,72,2.186268569382147,2109.084581575284,-8.567896954027779,,True,Pa-3,205,Cubic,m-3,FM,,"{'materials': True, 'thermo': True, 'xas': True, 'grain_boundaries': False, 'chemenv': True, 'electronic_structure': True, 'absorption': False, 'bandstructure': False, 'dos': False, 'magnetism': True, 'elasticity': False, 'dielectric': False, 'piezoelectric': False, 'surface_properties': False, 'oxi_states': True, 'provenance': True, 'charge_density': False, 'eos': False, 'phonon': False, 'insertion_electrodes': False, 'substrates': True}",,,,,,
mp-bfufm,K(NiS)2,-0.7965754164499991,0.053632893,False,0.0,0.9448451,5,4.018926765798113,91.1536869368941,-4.989863118000001,,True,I4/mmm,139,Tetragonal,4/mmm,FM,icsd-641273,"{'materials': True, 'thermo': True, 'xas': True, 'grain_boundaries': False, 'chemenv': True, 'electronic_structure': True, 'absorption': False, 'bandstructure': True, 'dos': True, 'magnetism': True, 'elasticity': True, 'dielectric': False, 'piezoelectric': False, 'surface_properties': False, 'oxi_states': True, 'provenance': True, 'charge_density': True, 'eos': False, 'phonon': False, 'insertion_electrodes': False, 'substrates': True}",,,,,,
mp-bmgiz,K2Ni3S4,-0.924005516055554,0.020670383333332,False,0.7006,0.0001946,18,3.325506881100865,382.0273561435966,-4.940976664444445,,False,P1,1,Triclinic,1,NM,,"{'materials': True, 'thermo': True, 'xas': False, 'grain_boundaries': False, 'chemenv': True, 'electronic_structure': True, 'absorption': False, 'bandstructure': False, 'dos': False, 'magnetism': True, 'elasticity': False, 'dielectric': False, 'piezoelectric': False, 'surface_properties': False, 'oxi_states': True, 'provenance': True, 'charge_density': False, 'eos': False, 'phonon': False, 'insertion_electrodes': False, 'substrates': False}",,,,,,
mp-crbie,K2Ni3S2,-0.43263870064285603,0.317477131666664,False,0.14069999999999902,3.2300000000000006e-05,28,3.150602100156049,671.2709681046742,-4.415202259285714,,False,Fddd,70,Orthorhombic,mmm,NM,,"{'materials': True, 'thermo': True, 'xas': False, 'grain_boundaries': False, 'chemenv': True, 'electronic_structure': True, 'absorption': False, 'bandstructure': False, 'dos': False, 'magnetism': True, 'elasticity': False, 'dielectric': False, 'piezoelectric': False, 'surface_properties': False, 'oxi_states': True, 'provenance': True, 'charge_density': True, 'eos': False, 'phonon': False, 'insertion_electrodes': False, 'substrates': False}",,,,,,
mp-zmq,K2Ni3S4,-0.9446758993888861,0.0,True,0.7685999999999991,0.0,18,3.409026820706266,372.6678223555598,-4.961647047777777,11.225402159999902,False,Fddd,70,Orthorhombic,mmm,NM,"icsd-641275,icsd-81731","{'materials': True, 'thermo': True, 'xas': True, 'grain_boundaries': False, 'chemenv': True, 'electronic_structure': True, 'absorption': False, 'bandstructure': True, 'dos': True, 'magnetism': True, 'elasticity': False, 'dielectric': True, 'piezoelectric': False, 'surface_properties': False, 'oxi_states': True, 'provenance': True, 'charge_density': True, 'eos': False, 'phonon': False, 'insertion_electrodes': False, 'substrates': True}",,,,,,
mp-crpyv,KCu7S4,-0.45295058060416604,0.016819276093745002,False,0.194199999999999,9.880000000000003e-05,12,5.172745823747068,196.520250286826,-4.3175678525,,False,P1,1,Triclinic,1,NM,,"{'materials': True, 'thermo': True, 'xas': False, 'grain_boundaries': False, 'chemenv': True, 'electronic_structure': True, 'absorption': False, 'bandstructure': False, 'dos': True, 'magnetism': True, 'elasticity': False, 'dielectric': False, 'piezoelectric': False, 'surface_properties': False, 'oxi_states': True, 'provenance': True, 'charge_density': True, 'eos': False, 'phonon': False, 'insertion_electrodes': False, 'substrates': False}",,,,,,
mp-opo,KCu3S2,-0.6254775112083331,0.005858932499998,False,0.4727,0.0,12,4.584443789488176,212.8836098399082,-4.2427750375,,False,C2/m,12,Monoclinic,2/m,NM,icsd-100001,"{'materials': True, 'thermo': True, 'xas': True, 'grain_boundaries': False, 'chemenv': True, 'electronic_structure': True, 'absorption': False, 'bandstructure': True, 'dos': True, 'magnetism': True, 'elasticity': False, 'dielectric': False, 'piezoelectric': False, 'surface_properties': False, 'oxi_states': True, 'provenance': True, 'charge_density': True, 'eos': False, 'phonon': False, 'insertion_electrodes': False, 'substrates': True}",,,,,,
mp-boyn,KCu4S3,-0.5903214574687491,0.0,True,0.0,1e-07,8,4.682005931557535,138.13358668444494,-4.33287015,,False,P4/mmm,123,Tetragonal,4/mmm,NM,"icsd-23336,icsd-602356,icsd-25720,icsd-602358","{'materials': True, 'thermo': True, 'xas': True, 'grain_boundaries': False, 'chemenv': True, 'electronic_structure': True, 'absorption': False, 'bandstructure': True, 'dos': True, 'magnetism': True, 'elasticity': True, 'dielectric': False, 'piezoelectric': False, 'surface_properties': False, 'oxi_states': True, 'provenance': True, 'charge_density': True, 'eos': False, 'phonon': False, 'insertion_electrodes': False, 'substrates': True}",,,,,,
mp-fuprr,K(CuS)2,-0.757603732449999,0.0,True,0.0,2.1600000000000003e-05,5,3.923625518803988,97.47511686528468,-4.27851943,,False,I4/mmm,139,Tetragonal,4/mmm,NM,,"{'materials': True, 'thermo': True, 'xas': False, 'grain_boundaries': False, 'chemenv': True, 'electronic_structure': True, 'absorption': False, 'bandstructure': False, 'dos': False, 'magnetism': True, 'elasticity': False, 'dielectric': False, 'piezoelectric': False, 'surface_properties': False, 'oxi_states': True, 'provenance': True, 'charge_density': True, 'eos': False, 'phonon': False, 'insertion_electrodes': False, 'substrates': False}",,,,,,
mp-crpyf,KCuS3,-0.44332230594999805,0.34333780272221803,False,0.0,0.004050499999999,5,3.020431692343385,109.3156406954625,-3.971876212,,False,Pmm2,25,Orthorhombic,mm2,NM,,"{'materials': True, 'thermo': True, 'xas': False, 'grain_boundaries': False, 'chemenv': True, 'electronic_structure': True, 'absorption': False, 'bandstructure': False, 'dos': False, 'magnetism': True, 'elasticity': False, 'dielectric': False, 'piezoelectric': False, 'surface_properties': False, 'oxi_states': True, 'provenance': True, 'charge_density': True, 'eos': False, 'phonon': False, 'insertion_electrodes': False, 'substrates': False}",,,,,,
mp-bpvi,KCuS,-0.921985167416667,0.0,True,1.8615,0.0,12,2.544808244700729,351.6022171810362,-4.044643202500001,6.254849046666666,False,Pnma,62,Orthorhombic,mmm,NM,icsd-49008,"{'materials': True, 'thermo': True, 'xas': True, 'grain_boundaries': False, 'chemenv': True, 'electronic_structure': True, 'absorption': False, 'bandstructure': True, 'dos': True, 'magnetism': True, 'elasticity': True, 'dielectric': True, 'piezoelectric': False, 'surface_properties': False, 'oxi_states': True, 'provenance': True, 'charge_density': True, 'eos': False, 'phonon': True, 'insertion_electrodes': False, 'substrates': True}",,,,,,
mp-zko,K3(Cu4S3)2,-0.66648269510294,0.00199118647059,False,0.0,5e-07,17,4.376524873523016,310.38525731076925,-4.2554326247058825,,False,C2/m,12,Monoclinic,2/m,NM,icsd-10054,"{'materials': True, 'thermo': True, 'xas': True, 'grain_boundaries': False, 'chemenv': True, 'electronic_structure': True, 'absorption': False, 'bandstructure': True, 'dos': True, 'magnetism': True, 'elasticity': False, 'dielectric': False, 'piezoelectric': False, 'surface_properties': False, 'oxi_states': True, 'provenance': True, 'charge_density': True, 'eos': False, 'phonon': False, 'insertion_electrodes': False, 'substrates': True}",,,,,,
mp-cltxa,K3(CuS)4,-0.8461715806136361,0.0010947527272730001,False,0.0,0.002288799999999,22,3.512467444200784,472.5088444135196,-4.149855825909091,,False,Pbam,55,Orthorhombic,mmm,NM,,"{'materials': True, 'thermo': True, 'xas': False, 'grain_boundaries': False, 'chemenv': True, 'electronic_structure': True, 'absorption': False, 'bandstructure': False, 'dos': False, 'magnetism': True, 'elasticity': False, 'dielectric': False, 'piezoelectric': False, 'surface_properties': False, 'oxi_states': True, 'provenance': True, 'charge_density': True, 'eos': False, 'phonon': False, 'insertion_electrodes': False, 'substrates': False}",,,,,,
mp-cnhre,K6ZnS4,-1.266701478522727,0.0,True,1.9713999999999992,0.0,22,2.243151334550573,634.0548290806395,-8.280913763181818,,False,P6_3mc,186,Hexagonal,6mm,NM,,"{'materials': True, 'thermo': True, 'xas': False, 'grain_boundaries': False, 'chemenv': True, 'electronic_structure': True, 'absorption': False, 'bandstructure': False, 'dos': False, 'magnetism': True, 'elasticity': False, 'dielectric': False, 'piezoelectric': False, 'surface_properties': False, 'oxi_states': True, 'provenance': True, 'charge_density': True, 'eos': False, 'phonon': False, 'insertion_electrodes': False, 'substrates': False}",,,,,,
mp-cnhxd,K2ZnS2,-1.252977908624998,0.0,True,2.804299999999999,0.0,10,2.635211962151513,261.80290942665175,-8.656018894999999,9.078519343333324,False,Ibam,72,Orthorhombic,mmm,NM,,"{'materials': True, 'thermo': True, 'xas': False, 'grain_boundaries': False, 'chemenv': True, 'electronic_structure': True, 'absorption': False, 'bandstructure': False, 'dos': True, 'magnetism': True, 'elasticity': False, 'dielectric': True, 'piezoelectric': False, 'surface_properties': False, 'oxi_states': True, 'provenance': True, 'charge_density': True, 'eos': False, 'phonon': False, 'insertion_electrodes': False, 'substrates': False}",,,,,,
mp-cnhta,K2Zn3S4,-1.123913191805556,0.0041487602777750005,False,2.4299,0.0,36,3.254937065384853,821.7324462463191,-9.002189258055557,,False,Pnma,62,Orthorhombic,mmm,NM,,"{'materials': True, 'thermo': True, 'xas': False, 'grain_boundaries': False, 'chemenv': True, 'electronic_structure': True, 'absorption': False, 'bandstructure': False, 'dos': False, 'magnetism': True, 'elasticity': False, 'dielectric': False, 'piezoelectric': False, 'surface_properties': False, 'oxi_states': True, 'provenance': True, 'charge_density': False, 'eos': False, 'phonon': False, 'insertion_electrodes': False, 'substrates': False}",,,,,,
mp-cnhsy,K2Zn3S4,-1.128061952083333,0.0,True,2.5684,0.0,18,3.265404812938068,409.549129486023,-9.006338018333333,12.541565853333296,False,Ibam,72,Orthorhombic,mmm,NM,,"{'materials': True, 'thermo': True, 'xas': False, 'grain_boundaries': False, 'chemenv': True, 'electronic_structure': True, 'absorption': False, 'bandstructure': False, 'dos': False, 'magnetism': True, 'elasticity': False, 'dielectric': True, 'piezoelectric': False, 'surface_properties': False, 'oxi_states': True, 'provenance': True, 'charge_density': True, 'eos': False, 'phonon': False, 'insertion_electrodes': False, 'substrates': False}",,,,,,
mp-cfalf,KZrS2,-1.739137890562498,0.0,True,0.0,4e-06,4,3.5884029661968233,89.98310495837228,-6.227604335,,False,R-3m,166,Trigonal,-3m,NM,icsd-641350,"{'materials': True, 'thermo': True, 'xas': True, 'grain_boundaries': False, 'chemenv': True, 'electronic_structure': True, 'absorption': False, 'bandstructure': True, 'dos': True, 'magnetism': True, 'elasticity': False, 'dielectric': False, 'piezoelectric': False, 'surface_properties': False, 'oxi_states': True, 'provenance': True, 'charge_density': True, 'eos': False, 'phonon': False, 'insertion_electrodes': False, 'substrates': True}",,,,,,
mp-bfwxf,K2ZrS4,-1.555417740107142,0.0,True,2.0197,0.0,56,2.657364616409933,1488.1217658018945,-5.463993586607144,,False,Pbca,61,Orthorhombic,mmm,NM,icsd-152138,"{'materials': True, 'thermo': True, 'xas': True, 'grain_boundaries': False, 'chemenv': True, 'electronic_structure': True, 'absorption': False, 'bandstructure': False, 'dos': False, 'magnetism': True, 'elasticity': False, 'dielectric': False, 'piezoelectric': False, 'surface_properties': False, 'oxi_states': True, 'provenance': True, 'charge_density': False, 'eos': False, 'phonon': False, 'insertion_electrodes': False, 'substrates': True}",,,,,,
mp-bgslx,K2NbS7,-1.110805184074999,0.002541339812499,False,1.3148,0.0210811,80,2.341419572362065,2244.243574790827,-5.243388031375,,False,P2_1/c,14,Monoclinic,2/m,NM,icsd-83614,"{'materials': True, 'thermo': True, 'xas': True, 'grain_boundaries': False, 'chemenv': True, 'electronic_structure': True, 'absorption': False, 'bandstructure': False, 'dos': False, 'magnetism': True, 'elasticity': False, 'dielectric': False, 'piezoelectric': False, 'surface_properties': False, 'oxi_states': True, 'provenance': True, 'charge_density': False, 'eos': False, 'phonon': False, 'insertion_electrodes': False, 'substrates': True}",,,,,,
mp-lti,KNbS2,-1.4087580168124991,0.008580634375,False,0.812,0.0,8,4.002570801970127,162.74005611332615,-6.28562556375,12.248739550020074,False,P6_3/mmc,194,Hexagonal,6/mmm,NM,icsd-26286,"{'materials': True, 'thermo': True, 'xas': True, 'grain_boundaries': False, 'chemenv': True, 'electronic_structure': True, 'absorption': False, 'bandstructure': True, 'dos': True, 'magnetism': True, 'elasticity': True, 'dielectric': True, 'piezoelectric': False, 'surface_properties': False, 'oxi_states': True, 'provenance': True, 'charge_density': True, 'eos': False, 'phonon': True, 'insertion_electrodes': True, 'substrates': True}",,,,,,
mp-bbfb,K3NbS4,-1.470959260843749,0.0,True,2.4051,0.0,32,2.360180937792134,952.5171040440633,-5.226584893125,,False,Pnma,62,Orthorhombic,mmm,NM,icsd-73326,"{'materials': True, 'thermo': True, 'xas': True, 'grain_boundaries': False, 'chemenv': True, 'electronic_structure': True, 'absorption': False, 'bandstructure': False, 'dos': False, 'magnetism': True, 'elasticity': False, 'dielectric': False, 'piezoelectric': False, 'surface_properties': False, 'oxi_states': True, 'provenance': True, 'charge_density': True, 'eos': False, 'phonon': False, 'insertion_electrodes': False, 'substrates': True}",,,,,,
mp-bmsnq,K3Nb2S11,-1.169109509953124,0.0,True,1.3870999999999991,0.00015199999999900002,64,2.4048710825150432,1811.3555535003893,-5.4883653903125005,,False,C2/c,15,Monoclinic,2/m,NM,icsd-391135,"{'materials': True, 'thermo': True, 'xas': True, 'grain_boundaries': False, 'chemenv': True, 'electronic_structure': True, 'absorption': False, 'bandstructure': False, 'dos': False, 'magnetism': True, 'elasticity': False, 'dielectric': False, 'piezoelectric': False, 'surface_properties': False, 'oxi_states': True, 'provenance': True, 'charge_density': False, 'eos': False, 'phonon': False, 'insertion_electrodes': False, 'substrates': True}",,,,,,
mp-wkq,K4Nb2S11,-1.216874983617645,0.0068571188786750005,False,1.4656,0.0,68,2.4440822372811333,1888.550859177071,-5.348608148823529,,False,Pca2_1,29,Orthorhombic,mm2,NM,icsd-81433,"{'materials': True, 'thermo': True, 'xas': True, 'grain_boundaries': False, 'chemenv': True, 'electronic_structure': True, 'absorption': False, 'bandstructure': False, 'dos': False, 'magnetism': True, 'elasticity': False, 'dielectric': False, 'piezoelectric': False, 'surface_properties': False, 'oxi_states': True, 'provenance': True, 'charge_density': False, 'eos': False, 'phonon': False, 'insertion_electrodes': False, 'substrates': True}",,,,,,
mp-crqsq,K2(NbS2)3,-1.498278686772726,0.0,True,0.0,0.6997981,22,3.789830557022664,481.3638114175812,-6.715646035909091,,False,Amm2,38,Orthorhombic,mm2,NM,,"{'materials': True, 'thermo': True, 'xas': False, 'grain_boundaries': False, 'chemenv': True, 'electronic_structure': True, 'absorption': False, 'bandstructure': False, 'dos': False, 'magnetism': True, 'elasticity': False, 'dielectric': False, 'piezoelectric': False, 'surface_properties': False, 'oxi_states': True, 'provenance': True, 'charge_density': True, 'eos': False, 'phonon': False, 'insertion_electrodes': False, 'substrates': False}",,,,,,
mp-bfwxw,K6Nb4S25,-1.105550554099999,0.0,True,1.5418,0.0010946,140,2.398945560451486,3898.002338085023,-5.4092185915,,False,P2_1/c,14,Monoclinic,2/m,NM,icsd-82505,"{'materials': True, 'thermo': True, 'xas': True, 'grain_boundaries': False, 'chemenv': True, 'electronic_structure': True, 'absorption': False, 'bandstructure': False, 'dos': False, 'magnetism': True, 'elasticity': False, 'dielectric': False, 'piezoelectric': False, 'surface_properties': False, 'oxi_states': True, 'provenance': True, 'charge_density': False, 'eos': False, 'phonon': False, 'insertion_electrodes': False, 'substrates': False}",,,,,,
mp-crqpk,K(Nb3S4)2,-1.397924619149999,0.0,True,0.0,0.0,15,5.058308940624935,280.04097688331,-7.720483396666667,,False,P-3,147,Trigonal,-3,NM,,"{'materials': True, 'thermo': True, 'xas': False, 'grain_boundaries': False, 'chemenv': True, 'electronic_structure': True, 'absorption': False, 'bandstructure': False, 'dos': False, 'magnetism': True, 'elasticity': False, 'dielectric': False, 'piezoelectric': False, 'surface_properties': False, 'oxi_states': True, 'provenance': True, 'charge_density': True, 'eos': False, 'phonon': False, 'insertion_electrodes': True, 'substrates': False}",,,,,,
mp-bapo,K2MoS4,-1.108780208749999,0.0,True,1.412799999999999,0.0,28,2.52579943967571,795.2196995838813,-11.1437310975,,False,Pnma,62,Orthorhombic,mmm,NM,"icsd-641254,icsd-409563","{'materials': True, 'thermo': True, 'xas': True, 'grain_boundaries': False, 'chemenv': True, 'electronic_structure': True, 'absorption': False, 'bandstructure': True, 'dos': True, 'magnetism': True, 'elasticity': False, 'dielectric': False, 'piezoelectric': False, 'surface_properties': False, 'oxi_states': True, 'provenance': True, 'charge_density': True, 'eos': False, 'phonon': False, 'insertion_electrodes': False, 'substrates': True}",,,,,,
mp-ckvdk,K(MoS)3,-0.894115747455361,0.038323658571425,False,0.0,0.004354699999999,14,3.940187137851462,356.63086024445175,-16.37073202428572,,False,P6_3/m,176,Hexagonal,6/m,NM,"icsd-30752,icsd-603631,icsd-641249","{'materials': True, 'thermo': True, 'xas': True, 'grain_boundaries': False, 'chemenv': True, 'electronic_structure': True, 'absorption': False, 'bandstructure': True, 'dos': True, 'magnetism': True, 'elasticity': False, 'dielectric': False, 'piezoelectric': False, 'surface_properties': False, 'oxi_states': True, 'provenance': True, 'charge_density': True, 'eos': False, 'phonon': False, 'insertion_electrodes': True, 'substrates': False}",,,,,,
mp-mae,K(MoS)3,-0.9324394060267871,0.0,True,0.0,0.0,14,4.674522964979823,300.60657291094446,-16.409055682857144,,False,P6_3/m,176,Hexagonal,6/m,NM,"icsd-30752,icsd-603631,icsd-641249","{'materials': True, 'thermo': True, 'xas': True, 'grain_boundaries': False, 'chemenv': True, 'electronic_structure': True, 'absorption': False, 'bandstructure': True, 'dos': True, 'magnetism': True, 'elasticity': False, 'dielectric': False, 'piezoelectric': False, 'surface_properties': False, 'oxi_states': True, 'provenance': True, 'charge_density': True, 'eos': False, 'phonon': False, 'insertion_electrodes': True, 'substrates': True}",,,,,,
mp-ckulq,K(Mo3S4)2,-0.87439268541666,0.043816976666677006,False,0.0,0.058810999999999,15,4.918839965580618,294.12594318439625,-15.98922191166666,,False,R-3,148,Trigonal,-3,NM,icsd-641241,"{'materials': True, 'thermo': True, 'xas': False, 'grain_boundaries': False, 'chemenv': True, 'electronic_structure': True, 'absorption': False, 'bandstructure': True, 'dos': True, 'magnetism': True, 'elasticity': False, 'dielectric': False, 'piezoelectric': False, 'surface_properties': False, 'oxi_states': True, 'provenance': True, 'charge_density': True, 'eos': False, 'phonon': False, 'insertion_electrodes': True, 'substrates': False}",,,,,,