material_id,formula_pretty,formation_energy_per_atom,energy_above_hull,is_stable,band_gap,total_magnetization,nsites,density,volume,energy_per_atom,e_total,is_magnetic,space_group_symbol,space_group_number,crystal_system,point_group,ordering,icsd_ids,has_props,lattice_a,lattice_b,lattice_c,lattice_alpha,lattice_beta,lattice_gamma
mp-crvlj,CaCdS2,-1.5482983012499991,0.08383387624999901,False,2.2388999999999992,0.0003724,4,4.073528646255397,88.3028802064482,-4.358399675,,False,R-3m,166,Trigonal,-3m,NM,,"{'materials': True, 'thermo': True, 'xas': False, 'grain_boundaries': False, 'chemenv': True, 'electronic_structure': True, 'absorption': False, 'bandstructure': True, 'dos': True, 'magnetism': True, 'elasticity': False, 'dielectric': False, 'piezoelectric': False, 'surface_properties': False, 'oxi_states': True, 'provenance': True, 'charge_density': True, 'eos': False, 'phonon': False, 'insertion_electrodes': False, 'substrates': False}",,,,,,
mp-cpsna,CaHfS3,-2.025165418687501,0.037140437999998,False,1.5238,0.002485599999999,20,4.731246841013688,441.8930364734302,-17.283529573000003,,False,Pnma,62,Orthorhombic,mmm,NM,icsd-619354,"{'materials': True, 'thermo': True, 'xas': False, 'grain_boundaries': False, 'chemenv': True, 'electronic_structure': True, 'absorption': False, 'bandstructure': True, 'dos': True, 'magnetism': True, 'elasticity': False, 'dielectric': False, 'piezoelectric': False, 'surface_properties': False, 'oxi_states': True, 'provenance': True, 'charge_density': True, 'eos': False, 'phonon': False, 'insertion_electrodes': False, 'substrates': False}",,,,,,
mp-cjmkv,SrTiS3,-1.839321146166665,0.082437121000003,False,0.0,0.0001941,10,3.48544654112479,220.75622591753705,-6.239343795,,False,P6_3/mmc,194,Hexagonal,6/mmm,NM,icsd-651070,"{'materials': True, 'thermo': True, 'xas': True, 'grain_boundaries': False, 'chemenv': True, 'electronic_structure': True, 'absorption': False, 'bandstructure': True, 'dos': True, 'magnetism': True, 'elasticity': False, 'dielectric': False, 'piezoelectric': False, 'surface_properties': False, 'oxi_states': True, 'provenance': True, 'charge_density': True, 'eos': False, 'phonon': False, 'insertion_electrodes': False, 'substrates': False}",,,,,,
mp-bmnfm,Sr8(TiS3)7,-1.976495384467591,0.0,True,0.044300000000000006,0.2766866,108,3.46025136217206,2460.9618378387295,-6.301307073333333,,False,P3,143,Trigonal,3,NM,,"{'materials': True, 'thermo': True, 'xas': True, 'grain_boundaries': False, 'chemenv': True, 'electronic_structure': True, 'absorption': False, 'bandstructure': False, 'dos': False, 'magnetism': True, 'elasticity': False, 'dielectric': False, 'piezoelectric': False, 'surface_properties': False, 'oxi_states': True, 'provenance': True, 'charge_density': False, 'eos': False, 'phonon': False, 'insertion_electrodes': False, 'substrates': True}",,,,,,
mp-crjap,Sr3V5S11,-1.554044772236841,0.08090992999999201,False,0.0,0.8810119,76,3.840203584854677,1505.2723724625157,-6.607107375263157,,True,C2/c,15,Monoclinic,2/m,FiM,,"{'materials': True, 'thermo': True, 'xas': False, 'grain_boundaries': False, 'chemenv': True, 'electronic_structure': True, 'absorption': False, 'bandstructure': False, 'dos': False, 'magnetism': True, 'elasticity': False, 'dielectric': False, 'piezoelectric': False, 'surface_properties': False, 'oxi_states': True, 'provenance': True, 'charge_density': False, 'eos': False, 'phonon': False, 'insertion_electrodes': False, 'substrates': False}",,,,,,
mp-beepr,Sr(FeS2)2,-1.070073208749999,0.193292872678571,False,0.0,0.7926863,56,3.645903858032818,1193.5427882394054,-6.096081974464285,,True,Pban,50,Orthorhombic,mmm,FM,,"{'materials': True, 'thermo': True, 'xas': True, 'grain_boundaries': False, 'chemenv': True, 'electronic_structure': True, 'absorption': False, 'bandstructure': False, 'dos': False, 'magnetism': True, 'elasticity': False, 'dielectric': False, 'piezoelectric': False, 'surface_properties': False, 'oxi_states': True, 'provenance': True, 'charge_density': False, 'eos': False, 'phonon': False, 'insertion_electrodes': False, 'substrates': True}",,,,,,
mp-crjcu,Sr(FeS2)2,-1.085167064285714,0.17819901714285602,False,0.0,2.5506343,7,3.607235959163337,150.7921267707489,-6.11117583,,True,I422,97,Tetragonal,422,FM,,"{'materials': True, 'thermo': True, 'xas': False, 'grain_boundaries': False, 'chemenv': True, 'electronic_structure': True, 'absorption': False, 'bandstructure': False, 'dos': True, 'magnetism': True, 'elasticity': False, 'dielectric': False, 'piezoelectric': False, 'surface_properties': False, 'oxi_states': True, 'provenance': True, 'charge_density': True, 'eos': False, 'phonon': False, 'insertion_electrodes': False, 'substrates': False}",,,,,,
mp-cptuz,Sr2ZnS3,-1.8972169273586321,0.040342723452381005,False,2.425899999999999,0.005912799999999,24,3.874408250076568,577.4741175907379,-12.44788966511905,,False,Pnma,62,Orthorhombic,mmm,NM,"icsd-421354,icsd-422028","{'materials': True, 'thermo': True, 'xas': False, 'grain_boundaries': False, 'chemenv': True, 'electronic_structure': True, 'absorption': False, 'bandstructure': True, 'dos': True, 'magnetism': True, 'elasticity': False, 'dielectric': False, 'piezoelectric': False, 'surface_properties': False, 'oxi_states': True, 'provenance': True, 'charge_density': True, 'eos': False, 'phonon': False, 'insertion_electrodes': False, 'substrates': False}",,,,,,
mp-hrt,SrZrS3,-2.077791916499998,0.006412831499997,False,1.1777,0.0,20,3.849113661274756,474.6162826351481,-6.608256288,,False,Pnma,62,Orthorhombic,mmm,NM,"icsd-23287,icsd-154104","{'materials': True, 'thermo': True, 'xas': True, 'grain_boundaries': False, 'chemenv': True, 'electronic_structure': True, 'absorption': False, 'bandstructure': True, 'dos': True, 'magnetism': True, 'elasticity': True, 'dielectric': False, 'piezoelectric': False, 'surface_properties': False, 'oxi_states': True, 'provenance': True, 'charge_density': True, 'eos': False, 'phonon': False, 'insertion_electrodes': False, 'substrates': True}",,,,,,
mp-bfuou,SrZrS3,-2.084204747999996,0.0,True,0.551199999999999,0.0,20,3.9582074137901833,461.5351916601778,-6.6146691194999985,30.646812766666667,False,Pnma,62,Orthorhombic,mmm,NM,icsd-154103,"{'materials': True, 'thermo': True, 'xas': True, 'grain_boundaries': False, 'chemenv': True, 'electronic_structure': True, 'absorption': False, 'bandstructure': True, 'dos': True, 'magnetism': True, 'elasticity': False, 'dielectric': True, 'piezoelectric': False, 'surface_properties': False, 'oxi_states': True, 'provenance': True, 'charge_density': True, 'eos': False, 'phonon': False, 'insertion_electrodes': False, 'substrates': True}",,,,,,
mp-enb,Sr(Mo3S4)2,-1.031711703500002,0.001999953333331,False,0.0,1.7002584,15,5.242369858554069,291.3435457410879,-16.755034072,,True,R-3,148,Trigonal,-3,FM,"icsd-644293,icsd-644292,icsd-644296,icsd-62156,icsd-65940","{'materials': True, 'thermo': True, 'xas': True, 'grain_boundaries': False, 'chemenv': True, 'electronic_structure': True, 'absorption': False, 'bandstructure': True, 'dos': True, 'magnetism': True, 'elasticity': False, 'dielectric': False, 'piezoelectric': False, 'surface_properties': False, 'oxi_states': True, 'provenance': True, 'charge_density': True, 'eos': False, 'phonon': False, 'insertion_electrodes': False, 'substrates': True}",,,,,,
mp-cpddj,Sr(Mo3S4)2,-0.165995608166667,0.8677160486666661,False,0.0,0.000348899999999,15,4.497725617223158,339.5784342265644,-15.889317976666666,,False,P-1,2,Triclinic,-1,NM,,"{'materials': True, 'thermo': True, 'xas': False, 'grain_boundaries': False, 'chemenv': True, 'electronic_structure': True, 'absorption': False, 'bandstructure': False, 'dos': False, 'magnetism': True, 'elasticity': False, 'dielectric': False, 'piezoelectric': False, 'surface_properties': False, 'oxi_states': True, 'provenance': True, 'charge_density': True, 'eos': False, 'phonon': False, 'insertion_electrodes': False, 'substrates': False}",,,,,,
mp-mya,Sr(Mo3S4)2,-1.033711656833334,0.0,True,0.0,1e-07,15,5.253865699319886,290.7060648457499,-16.757034025333333,,False,P-1,2,Triclinic,-1,NM,icsd-65941,"{'materials': True, 'thermo': True, 'xas': True, 'grain_boundaries': False, 'chemenv': True, 'electronic_structure': True, 'absorption': False, 'bandstructure': True, 'dos': True, 'magnetism': True, 'elasticity': False, 'dielectric': False, 'piezoelectric': False, 'surface_properties': False, 'oxi_states': True, 'provenance': True, 'charge_density': True, 'eos': False, 'phonon': False, 'insertion_electrodes': False, 'substrates': True}",,,,,,
mp-crhtq,SrCd3S4,-1.119460227499998,0.12742525937499902,False,1.3047,0.0036515,8,5.102203414216747,180.01354908452274,-3.75971641625,,False,R-3m,166,Trigonal,-3m,NM,,"{'materials': True, 'thermo': True, 'xas': False, 'grain_boundaries': False, 'chemenv': True, 'electronic_structure': True, 'absorption': False, 'bandstructure': False, 'dos': False, 'magnetism': True, 'elasticity': False, 'dielectric': False, 'piezoelectric': False, 'surface_properties': False, 'oxi_states': True, 'provenance': True, 'charge_density': True, 'eos': False, 'phonon': False, 'insertion_electrodes': False, 'substrates': False}",,,,,,
mp-crhuc,SrCd4S5,-1.027765066749999,0.142704465999998,False,0.8757,0.0036401999999990005,10,5.227900430992848,221.57533453835052,-3.649710808,,False,R-3m,166,Trigonal,-3m,NM,,"{'materials': True, 'thermo': True, 'xas': False, 'grain_boundaries': False, 'chemenv': True, 'electronic_structure': True, 'absorption': False, 'bandstructure': False, 'dos': True, 'magnetism': True, 'elasticity': False, 'dielectric': False, 'piezoelectric': False, 'surface_properties': False, 'oxi_states': True, 'provenance': True, 'charge_density': True, 'eos': False, 'phonon': False, 'insertion_electrodes': False, 'substrates': False}",,,,,,
mp-cqtyh,SrHfS3,-2.074540924687499,0.0,True,1.4955999999999992,0.0,20,5.1832637195499665,464.28014399911604,-18.954378553,45.04933183000001,False,Pnma,62,Orthorhombic,mmm,NM,icsd-638863,"{'materials': True, 'thermo': True, 'xas': False, 'grain_boundaries': False, 'chemenv': True, 'electronic_structure': True, 'absorption': False, 'bandstructure': True, 'dos': True, 'magnetism': True, 'elasticity': False, 'dielectric': True, 'piezoelectric': False, 'surface_properties': False, 'oxi_states': True, 'provenance': True, 'charge_density': True, 'eos': False, 'phonon': False, 'insertion_electrodes': False, 'substrates': False}",,,,,,
mp-begaw,Sr17(Ta5S21)2,-1.849146079396134,0.005797600869565001,False,1.7608000000000001,3.299999999999999e-06,69,4.183101627857136,1844.1931519512052,-6.504381686376811,,False,P1,1,Triclinic,1,NM,,"{'materials': True, 'thermo': True, 'xas': True, 'grain_boundaries': False, 'chemenv': True, 'electronic_structure': True, 'absorption': False, 'bandstructure': False, 'dos': False, 'magnetism': True, 'elasticity': False, 'dielectric': False, 'piezoelectric': False, 'surface_properties': False, 'oxi_states': True, 'provenance': True, 'charge_density': False, 'eos': False, 'phonon': False, 'insertion_electrodes': False, 'substrates': True}",,,,,,
mp-behlr,Sr17(Ta5S21)2,-1.8549436802656991,0.0,True,1.7384,0.0,69,4.233101735147917,1822.4101046181215,-6.510179287246376,,False,P1,1,Triclinic,1,NM,,"{'materials': True, 'thermo': True, 'xas': True, 'grain_boundaries': False, 'chemenv': True, 'electronic_structure': True, 'absorption': False, 'bandstructure': False, 'dos': False, 'magnetism': True, 'elasticity': False, 'dielectric': False, 'piezoelectric': False, 'surface_properties': False, 'oxi_states': True, 'provenance': True, 'charge_density': False, 'eos': False, 'phonon': False, 'insertion_electrodes': False, 'substrates': False}",,,,,,
mp-cqhbj,Sr2Re6S11,-1.13784687223684,0.006993453881581,False,1.357899999999999,0.0,38,7.143219767893661,764.8970574955965,-7.642316149210525,,False,R-3c,167,Trigonal,-3m,NM,icsd-650080,"{'materials': True, 'thermo': True, 'xas': True, 'grain_boundaries': False, 'chemenv': True, 'electronic_structure': True, 'absorption': False, 'bandstructure': False, 'dos': False, 'magnetism': True, 'elasticity': False, 'dielectric': False, 'piezoelectric': False, 'surface_properties': False, 'oxi_states': True, 'provenance': True, 'charge_density': True, 'eos': False, 'phonon': False, 'insertion_electrodes': False, 'substrates': False}",,,,,,
mp-ohw,Ba3TiS5,-2.147024222314816,0.0033715922222190002,False,1.4489,0.0,18,4.057618131750924,507.59902046580123,-5.962513711111113,,False,I4/mcm,140,Tetragonal,4/mmm,NM,icsd-203087,"{'materials': True, 'thermo': True, 'xas': True, 'grain_boundaries': False, 'chemenv': True, 'electronic_structure': True, 'absorption': False, 'bandstructure': True, 'dos': True, 'magnetism': True, 'elasticity': False, 'dielectric': False, 'piezoelectric': False, 'surface_properties': False, 'oxi_states': True, 'provenance': True, 'charge_density': True, 'eos': False, 'phonon': False, 'insertion_electrodes': False, 'substrates': True}",,,,,,
mp-kmb,BaTiS3,-1.945466765166667,0.006230596999996001,False,0.0,2e-07,10,3.9829071196417702,234.63134508320312,-6.390798784000002,,False,P6_3/mmc,194,Hexagonal,6/mmm,NM,"icsd-616083,icsd-18201,icsd-616087,icsd-14175","{'materials': True, 'thermo': True, 'xas': False, 'grain_boundaries': False, 'chemenv': True, 'electronic_structure': True, 'absorption': False, 'bandstructure': True, 'dos': True, 'magnetism': True, 'elasticity': False, 'dielectric': False, 'piezoelectric': False, 'surface_properties': False, 'oxi_states': True, 'provenance': True, 'charge_density': True, 'eos': False, 'phonon': False, 'insertion_electrodes': True, 'substrates': True}",,,,,,
mp-bamu,Ba2TiS4,-2.099204554761902,0.0,True,2.096799999999999,0.0,28,3.797085282189267,788.5411101953788,-6.139637804285712,,False,Pnma,62,Orthorhombic,mmm,NM,"icsd-203086,icsd-616084","{'materials': True, 'thermo': True, 'xas': True, 'grain_boundaries': False, 'chemenv': True, 'electronic_structure': True, 'absorption': False, 'bandstructure': True, 'dos': True, 'magnetism': True, 'elasticity': False, 'dielectric': False, 'piezoelectric': False, 'surface_properties': False, 'oxi_states': True, 'provenance': True, 'charge_density': True, 'eos': False, 'phonon': False, 'insertion_electrodes': False, 'substrates': True}",,,,,,
mp-ggp,BaVS3,-1.6553276125,0.014206899999999,False,0.0,1.994070499999999,10,4.169128823642622,226.60022021533962,-6.338342442000001,,True,P6_3/mmc,194,Hexagonal,6/mmm,FM,"icsd-8193,icsd-62711,icsd-154181,icsd-616098,icsd-23194,icsd-616097,icsd-15537,icsd-8194","{'materials': True, 'thermo': True, 'xas': True, 'grain_boundaries': False, 'chemenv': True, 'electronic_structure': True, 'absorption': False, 'bandstructure': True, 'dos': True, 'magnetism': True, 'elasticity': False, 'dielectric': False, 'piezoelectric': False, 'surface_properties': False, 'oxi_states': True, 'provenance': True, 'charge_density': True, 'eos': False, 'phonon': False, 'insertion_electrodes': True, 'substrates': True}",,,,,,
mp-crxsm,Ba(V5S8)2,-1.352422692962962,0.036495582407408,False,0.0,3.9353199,27,3.833906957545904,502.32395857937877,-7.239696731481481,,True,P-1,2,Triclinic,-1,FiM,,"{'materials': True, 'thermo': True, 'xas': False, 'grain_boundaries': False, 'chemenv': True, 'electronic_structure': True, 'absorption': False, 'bandstructure': False, 'dos': True, 'magnetism': True, 'elasticity': False, 'dielectric': False, 'piezoelectric': False, 'surface_properties': False, 'oxi_states': True, 'provenance': True, 'charge_density': True, 'eos': False, 'phonon': False, 'insertion_electrodes': False, 'substrates': False}",,,,,,
mp-bfqhd,BaVS3,-1.665745347499997,0.0037891650000020003,False,0.0,1.9362271,10,4.185551231275974,225.71113273783448,-6.348760176999998,,True,C222_1,20,Orthorhombic,222,FM,icsd-63230,"{'materials': True, 'thermo': True, 'xas': True, 'grain_boundaries': False, 'chemenv': True, 'electronic_structure': True, 'absorption': False, 'bandstructure': True, 'dos': True, 'magnetism': True, 'elasticity': False, 'dielectric': False, 'piezoelectric': False, 'surface_properties': False, 'oxi_states': True, 'provenance': True, 'charge_density': True, 'eos': False, 'phonon': False, 'insertion_electrodes': True, 'substrates': True}",,,,,,
mp-fct,BaVS3,-1.669534512499999,0.0,True,0.0,4.0000022,20,4.011724019419855,470.98230335403633,-6.352549342,,True,Cmc2_1,36,Orthorhombic,mm2,FM,"icsd-52692,icsd-154182,icsd-154184,icsd-154183,icsd-63229,icsd-616099","{'materials': True, 'thermo': True, 'xas': True, 'grain_boundaries': False, 'chemenv': True, 'electronic_structure': True, 'absorption': False, 'bandstructure': True, 'dos': True, 'magnetism': True, 'elasticity': False, 'dielectric': False, 'piezoelectric': False, 'surface_properties': False, 'oxi_states': True, 'provenance': True, 'charge_density': True, 'eos': False, 'phonon': False, 'insertion_electrodes': True, 'substrates': True}",,,,,,
mp-crxsv,Ba(V3S4)4,-1.36488804275862,0.033629984698274,False,0.0,0.001166299999999,29,4.381987382728273,478.1036179427545,-7.472619462758621,,False,Cm,8,Monoclinic,m,NM,,"{'materials': True, 'thermo': True, 'xas': False, 'grain_boundaries': False, 'chemenv': True, 'electronic_structure': True, 'absorption': False, 'bandstructure': False, 'dos': True, 'magnetism': True, 'elasticity': False, 'dielectric': False, 'piezoelectric': False, 'surface_properties': False, 'oxi_states': True, 'provenance': True, 'charge_density': True, 'eos': False, 'phonon': False, 'insertion_electrodes': False, 'substrates': False}",,,,,,
mp-bewzq,BaVS3,-1.6552580924999991,0.014276420000000001,False,0.0,0.0097659,20,4.199591438038246,449.91305629713696,-6.338272922,,True,Cm,8,Monoclinic,m,FM,,"{'materials': True, 'thermo': True, 'xas': True, 'grain_boundaries': False, 'chemenv': True, 'electronic_structure': True, 'absorption': False, 'bandstructure': False, 'dos': False, 'magnetism': True, 'elasticity': False, 'dielectric': False, 'piezoelectric': False, 'surface_properties': False, 'oxi_states': True, 'provenance': True, 'charge_density': True, 'eos': False, 'phonon': False, 'insertion_electrodes': True, 'substrates': True}",,,,,,
mp-cjjlk,BaCrS2,-1.535076967499999,0.06170335824999901,False,0.0,8.0,8,4.261303433964878,197.5305352565725,-6.49678142625,,True,P4/nmm,129,Tetragonal,4/mmm,FM,,"{'materials': True, 'thermo': True, 'xas': True, 'grain_boundaries': False, 'chemenv': True, 'electronic_structure': True, 'absorption': False, 'bandstructure': True, 'dos': True, 'magnetism': True, 'elasticity': False, 'dielectric': False, 'piezoelectric': False, 'surface_properties': False, 'oxi_states': True, 'provenance': True, 'charge_density': True, 'eos': False, 'phonon': False, 'insertion_electrodes': False, 'substrates': False}",,,,,,
mp-btsp,Ba3CrS5,-1.7774787713888882,0.09686817077777701,False,0.0,5.9487041,18,4.494592298767813,461.3001391448224,-5.788252199444445,,True,P6_3cm,185,Hexagonal,6mm,FM,icsd-97539,"{'materials': True, 'thermo': True, 'xas': True, 'grain_boundaries': False, 'chemenv': True, 'electronic_structure': True, 'absorption': False, 'bandstructure': True, 'dos': True, 'magnetism': True, 'elasticity': False, 'dielectric': False, 'piezoelectric': False, 'surface_properties': False, 'oxi_states': True, 'provenance': True, 'charge_density': True, 'eos': False, 'phonon': False, 'insertion_electrodes': False, 'substrates': True}",,,,,,
mp-btsq,Ba3(CrS3)2,-1.715966274999999,0.025975898545453003,False,0.0,0.0,22,4.421820325682275,532.0273915744392,-6.251185005454546,,True,R-3c,167,Trigonal,-3m,FiM,icsd-97540,"{'materials': True, 'thermo': True, 'xas': True, 'grain_boundaries': False, 'chemenv': True, 'electronic_structure': True, 'absorption': False, 'bandstructure': True, 'dos': True, 'magnetism': True, 'elasticity': False, 'dielectric': False, 'piezoelectric': False, 'surface_properties': False, 'oxi_states': True, 'provenance': True, 'charge_density': True, 'eos': False, 'phonon': False, 'insertion_electrodes': False, 'substrates': True}",,,,,,