material_id,formula_pretty,formation_energy_per_atom,energy_above_hull,is_stable,band_gap,total_magnetization,nsites,density,volume,energy_per_atom,e_total,is_magnetic,space_group_symbol,space_group_number,crystal_system,point_group,ordering,icsd_ids,has_props,lattice_a,lattice_b,lattice_c,lattice_alpha,lattice_beta,lattice_gamma
mp-ceuwn,BaHfS3,-0.568850240499999,1.570927558499998,False,0.0,0.477922399999999,5,5.766849582479653,118.6370499391143,-5.426521662000001,,False,Cmmm,65,Orthorhombic,mmm,NM,,"{'materials': True, 'thermo': True, 'xas': False, 'grain_boundaries': False, 'chemenv': True, 'electronic_structure': True, 'absorption': False, 'bandstructure': False, 'dos': False, 'magnetism': True, 'elasticity': False, 'dielectric': False, 'piezoelectric': False, 'surface_properties': False, 'oxi_states': True, 'provenance': True, 'charge_density': False, 'eos': False, 'phonon': False, 'insertion_electrodes': False, 'substrates': False}",,,,,,
mp-cpsdu,Ba4Hf3S10,-2.146369037941175,0.021636369117648,False,0.5937,0.0001905,17,5.214155236231067,447.5831642059846,-6.788806918823529,,False,I4/mmm,139,Tetragonal,4/mmm,NM,icsd-602359,"{'materials': True, 'thermo': True, 'xas': True, 'grain_boundaries': False, 'chemenv': True, 'electronic_structure': True, 'absorption': False, 'bandstructure': True, 'dos': True, 'magnetism': True, 'elasticity': False, 'dielectric': False, 'piezoelectric': False, 'surface_properties': False, 'oxi_states': True, 'provenance': True, 'charge_density': True, 'eos': False, 'phonon': False, 'insertion_electrodes': False, 'substrates': False}",,,,,,
mp-bfsai,Ba5Hf4S13,-2.135647569886362,0.025942471704534002,False,0.5503,9.9e-06,22,5.267205817324192,572.9660518059367,-6.827002164545454,,False,I4/mmm,139,Tetragonal,4/mmm,NM,icsd-71936,"{'materials': True, 'thermo': True, 'xas': True, 'grain_boundaries': False, 'chemenv': True, 'electronic_structure': True, 'absorption': False, 'bandstructure': True, 'dos': True, 'magnetism': True, 'elasticity': False, 'dielectric': False, 'piezoelectric': False, 'surface_properties': False, 'oxi_states': True, 'provenance': True, 'charge_density': True, 'eos': False, 'phonon': False, 'insertion_electrodes': False, 'substrates': True}",,,,,,
mp-bfooe,Ba6Hf5S16,-2.128523974814813,0.029026762592592,False,0.5949,0.027968399999999,27,5.299566454236695,698.5650949144898,-6.850677981851851,,False,I4/mmm,139,Tetragonal,4/mmm,NM,icsd-71935,"{'materials': True, 'thermo': True, 'xas': True, 'grain_boundaries': False, 'chemenv': True, 'electronic_structure': True, 'absorption': False, 'bandstructure': True, 'dos': True, 'magnetism': True, 'elasticity': False, 'dielectric': False, 'piezoelectric': False, 'surface_properties': False, 'oxi_states': True, 'provenance': True, 'charge_density': True, 'eos': False, 'phonon': False, 'insertion_electrodes': False, 'substrates': True}",,,,,,
mp-fxx,BaTaS3,-1.7826291849666651,0.0,True,0.0,2e-07,10,5.773115876741495,238.4304913891586,-7.022248309,,False,P6_3/mmc,194,Hexagonal,6/mmm,NM,"icsd-659541,icsd-616077,icsd-16083","{'materials': True, 'thermo': True, 'xas': True, 'grain_boundaries': False, 'chemenv': True, 'electronic_structure': True, 'absorption': False, 'bandstructure': True, 'dos': True, 'magnetism': True, 'elasticity': True, 'dielectric': False, 'piezoelectric': False, 'surface_properties': False, 'oxi_states': True, 'provenance': True, 'charge_density': True, 'eos': False, 'phonon': False, 'insertion_electrodes': False, 'substrates': True}",,,,,,
mp-brla,Ba3(TaS4)2,-1.84273351548717,0.0,True,1.108,0.0,39,5.089566194332099,1008.5421873381878,-6.657345946666658,,False,P2/m,10,Monoclinic,2/m,NM,icsd-202878,"{'materials': True, 'thermo': True, 'xas': True, 'grain_boundaries': False, 'chemenv': True, 'electronic_structure': True, 'absorption': False, 'bandstructure': False, 'dos': False, 'magnetism': True, 'elasticity': False, 'dielectric': False, 'piezoelectric': False, 'surface_properties': False, 'oxi_states': True, 'provenance': True, 'charge_density': True, 'eos': False, 'phonon': False, 'insertion_electrodes': False, 'substrates': True}",,,,,,
mp-bmnif,Ba11(Ta3S13)2,-1.866926389976742,0.021093796046505003,False,0.9842999999999991,0.002731099999999,43,4.8776516744186935,1167.694347516522,-6.51535964860465,,False,P1,1,Triclinic,1,NM,,"{'materials': True, 'thermo': True, 'xas': True, 'grain_boundaries': False, 'chemenv': True, 'electronic_structure': True, 'absorption': False, 'bandstructure': False, 'dos': False, 'magnetism': True, 'elasticity': False, 'dielectric': False, 'piezoelectric': False, 'surface_properties': False, 'oxi_states': True, 'provenance': True, 'charge_density': True, 'eos': False, 'phonon': False, 'insertion_electrodes': False, 'substrates': True}",,,,,,
mp-vic,Ba2Re6S11,-1.170297625394733,0.0,True,1.338499999999999,0.0,38,7.250970194048355,799.0640270175059,-7.698613939210523,,False,R-3c,167,Trigonal,-3m,NM,"icsd-30737,icsd-201072","{'materials': True, 'thermo': True, 'xas': True, 'grain_boundaries': False, 'chemenv': True, 'electronic_structure': True, 'absorption': False, 'bandstructure': True, 'dos': True, 'magnetism': True, 'elasticity': False, 'dielectric': False, 'piezoelectric': False, 'surface_properties': False, 'oxi_states': True, 'provenance': True, 'charge_density': True, 'eos': False, 'phonon': False, 'insertion_electrodes': False, 'substrates': True}",,,,,,
mp-brin,BaPt2S3,-1.228545602361105,0.001417140555547,False,0.9791999999999991,0.0,24,7.169865183256979,577.785821059076,-5.640784721944439,18.72355605333333,False,P4_12_12,92,Tetragonal,422,NM,icsd-201146,"{'materials': True, 'thermo': True, 'xas': True, 'grain_boundaries': False, 'chemenv': True, 'electronic_structure': True, 'absorption': False, 'bandstructure': True, 'dos': True, 'magnetism': True, 'elasticity': False, 'dielectric': True, 'piezoelectric': True, 'surface_properties': False, 'oxi_states': True, 'provenance': True, 'charge_density': False, 'eos': False, 'phonon': False, 'insertion_electrodes': False, 'substrates': True}",,,,,,
mp-bfuie,BaPt2S3,-1.229962742916658,0.0,True,1.3649,0.0,72,7.549908175402657,1646.1046991091691,-5.642201862499992,,False,P4_12_12,92,Tetragonal,422,NM,icsd-55077,"{'materials': True, 'thermo': True, 'xas': True, 'grain_boundaries': False, 'chemenv': True, 'electronic_structure': True, 'absorption': False, 'bandstructure': False, 'dos': False, 'magnetism': True, 'elasticity': False, 'dielectric': False, 'piezoelectric': False, 'surface_properties': False, 'oxi_states': True, 'provenance': True, 'charge_density': False, 'eos': False, 'phonon': False, 'insertion_electrodes': False, 'substrates': True}",,,,,,
mp-bplf,BaHgS2,-1.404814385624999,0.0,True,1.1569,0.0,16,5.803646072710984,460.1347096257203,-4.030674986249998,15.901796283333331,False,Pmc2_1,26,Orthorhombic,mm2,NM,"icsd-32648,icsd-251739","{'materials': True, 'thermo': True, 'xas': True, 'grain_boundaries': False, 'chemenv': True, 'electronic_structure': True, 'absorption': False, 'bandstructure': True, 'dos': True, 'magnetism': True, 'elasticity': False, 'dielectric': True, 'piezoelectric': True, 'surface_properties': False, 'oxi_states': True, 'provenance': True, 'charge_density': True, 'eos': False, 'phonon': False, 'insertion_electrodes': False, 'substrates': True}",,,,,,
mp-cpzcb,Ba2HgS5,-1.4468766143750011,0.0,True,1.6693,0.0,32,4.635298641314908,910.7392948649457,-4.551202924375001,,False,Pnma,62,Orthorhombic,mmm,NM,icsd-238043,"{'materials': True, 'thermo': True, 'xas': True, 'grain_boundaries': False, 'chemenv': True, 'electronic_structure': True, 'absorption': False, 'bandstructure': False, 'dos': False, 'magnetism': True, 'elasticity': False, 'dielectric': False, 'piezoelectric': False, 'surface_properties': False, 'oxi_states': True, 'provenance': True, 'charge_density': True, 'eos': False, 'phonon': False, 'insertion_electrodes': False, 'substrates': False}",,,,,,
mp-baqq,Ba2HgS3,-1.699150297916667,0.013914367083334002,False,1.358999999999999,0.0,24,5.480943793315077,692.5061226398087,-4.45911947375,,False,Pnma,62,Orthorhombic,mmm,NM,icsd-32647,"{'materials': True, 'thermo': True, 'xas': True, 'grain_boundaries': False, 'chemenv': True, 'electronic_structure': True, 'absorption': False, 'bandstructure': True, 'dos': True, 'magnetism': True, 'elasticity': False, 'dielectric': False, 'piezoelectric': False, 'surface_properties': False, 'oxi_states': True, 'provenance': True, 'charge_density': True, 'eos': False, 'phonon': False, 'insertion_electrodes': False, 'substrates': True}",,,,,,
mp-crfyn,TiVS2,-1.405375185833332,0.070929045937498,False,0.0,0.00047000000000000004,8,4.669734593474574,115.88056635222439,-7.71892356375,,False,Pmc2_1,26,Orthorhombic,mm2,NM,,"{'materials': True, 'thermo': True, 'xas': False, 'grain_boundaries': False, 'chemenv': True, 'electronic_structure': True, 'absorption': False, 'bandstructure': True, 'dos': True, 'magnetism': True, 'elasticity': False, 'dielectric': False, 'piezoelectric': False, 'surface_properties': False, 'oxi_states': True, 'provenance': True, 'charge_density': True, 'eos': False, 'phonon': False, 'insertion_electrodes': False, 'substrates': False}",,,,,,
mp-cgivg,Ti2VS4,-1.5739931266666671,0.018362926190474003,False,0.0,1.1210759,7,3.777224787824178,120.8668173567157,-7.491776120000002,,True,C2/m,12,Monoclinic,2/m,FiM,,"{'materials': True, 'thermo': True, 'xas': False, 'grain_boundaries': False, 'chemenv': True, 'electronic_structure': True, 'absorption': False, 'bandstructure': True, 'dos': True, 'magnetism': True, 'elasticity': False, 'dielectric': False, 'piezoelectric': False, 'surface_properties': False, 'oxi_states': True, 'provenance': True, 'charge_density': True, 'eos': False, 'phonon': False, 'insertion_electrodes': False, 'substrates': True}",,,,,,
mp-crgmw,Ti3VS4,-1.534182281249998,0.063651317343749,False,0.0,0.1805115,8,4.610014533457488,116.27428897585915,-7.6991789025,,True,P2/m,10,Monoclinic,2/m,FM,,"{'materials': True, 'thermo': True, 'xas': False, 'grain_boundaries': False, 'chemenv': True, 'electronic_structure': True, 'absorption': False, 'bandstructure': True, 'dos': True, 'magnetism': True, 'elasticity': False, 'dielectric': False, 'piezoelectric': False, 'surface_properties': False, 'oxi_states': True, 'provenance': True, 'charge_density': True, 'eos': False, 'phonon': False, 'insertion_electrodes': False, 'substrates': False}",,,,,,
mp-crgnk,Ti3VS6,-1.609152567499999,0.011204661999992,False,0.0,2.2017829,10,3.615091031086018,177.73177130595923,-7.368629407,,True,R-3,148,Trigonal,-3,FM,,"{'materials': True, 'thermo': True, 'xas': False, 'grain_boundaries': False, 'chemenv': True, 'electronic_structure': True, 'absorption': False, 'bandstructure': True, 'dos': True, 'magnetism': True, 'elasticity': False, 'dielectric': False, 'piezoelectric': False, 'surface_properties': False, 'oxi_states': True, 'provenance': True, 'charge_density': True, 'eos': False, 'phonon': False, 'insertion_electrodes': False, 'substrates': False}",,,,,,
mp-crgdz,TiCrS2,-1.199996959583332,0.091667498333331,False,0.0,3.532854,4,4.482065069763771,60.75702716587133,-7.6558306875,,True,P-3m1,164,Trigonal,-3m,FM,,"{'materials': True, 'thermo': True, 'xas': False, 'grain_boundaries': False, 'chemenv': True, 'electronic_structure': True, 'absorption': False, 'bandstructure': True, 'dos': True, 'magnetism': True, 'elasticity': False, 'dielectric': False, 'piezoelectric': False, 'surface_properties': False, 'oxi_states': True, 'provenance': True, 'charge_density': True, 'eos': False, 'phonon': False, 'insertion_electrodes': False, 'substrates': False}",,,,,,
mp-cszud,TiCrS4,-1.203767281388888,0.060396844166665006,False,0.0,4.0127331,12,3.344428978334518,226.53034165045383,-6.886789004166666,,True,Imma,74,Orthorhombic,mmm,FM,,"{'materials': True, 'thermo': True, 'xas': False, 'grain_boundaries': False, 'chemenv': True, 'electronic_structure': True, 'absorption': False, 'bandstructure': False, 'dos': False, 'magnetism': True, 'elasticity': False, 'dielectric': False, 'piezoelectric': False, 'surface_properties': False, 'oxi_states': True, 'provenance': True, 'charge_density': True, 'eos': False, 'phonon': False, 'insertion_electrodes': True, 'substrates': False}",,,,,,
mp-bmmfo,Ti(CrS2)2,-0.9448920361904751,0.28689676857142205,False,0.0,6.3190317,7,4.020467122146771,115.69523161685937,-7.195060294285715,,True,P1,1,Triclinic,1,FM,,"{'materials': True, 'thermo': True, 'xas': True, 'grain_boundaries': False, 'chemenv': True, 'electronic_structure': True, 'absorption': False, 'bandstructure': True, 'dos': True, 'magnetism': True, 'elasticity': False, 'dielectric': False, 'piezoelectric': False, 'surface_properties': False, 'oxi_states': True, 'provenance': True, 'charge_density': True, 'eos': False, 'phonon': False, 'insertion_electrodes': False, 'substrates': True}",,,,,,
mp-cjitu,Ti(CrS2)2,-1.231788804761901,0.0,True,0.0,7.9422869,7,3.781595218768463,123.0033485858441,-7.48195706285714,,True,C2/m,12,Monoclinic,2/m,FM,icsd-626640,"{'materials': True, 'thermo': True, 'xas': False, 'grain_boundaries': False, 'chemenv': True, 'electronic_structure': True, 'absorption': False, 'bandstructure': True, 'dos': True, 'magnetism': True, 'elasticity': False, 'dielectric': False, 'piezoelectric': False, 'surface_properties': False, 'oxi_states': True, 'provenance': True, 'charge_density': True, 'eos': False, 'phonon': False, 'insertion_electrodes': False, 'substrates': False}",,,,,,
mp-crgvo,Ti(CrS2)2,-1.207015894761901,0.024772909999996002,False,0.0,5.9779264,7,3.9096862731848763,118.97345270259319,-7.45718415285714,,True,Cm,8,Monoclinic,m,FiM,,"{'materials': True, 'thermo': True, 'xas': False, 'grain_boundaries': False, 'chemenv': True, 'electronic_structure': True, 'absorption': False, 'bandstructure': True, 'dos': True, 'magnetism': True, 'elasticity': False, 'dielectric': False, 'piezoelectric': False, 'surface_properties': False, 'oxi_states': True, 'provenance': True, 'charge_density': True, 'eos': False, 'phonon': False, 'insertion_electrodes': False, 'substrates': False}",,,,,,
mp-crgpz,Ti4MnS8,-1.49946686240495,0.028315226538453003,False,0.0,3.2048729,13,3.435314227914778,243.10100617492824,-7.179710328461539,,True,P-3m1,164,Trigonal,-3m,FiM,,"{'materials': True, 'thermo': True, 'xas': False, 'grain_boundaries': False, 'chemenv': True, 'electronic_structure': True, 'absorption': False, 'bandstructure': False, 'dos': True, 'magnetism': True, 'elasticity': False, 'dielectric': False, 'piezoelectric': False, 'surface_properties': False, 'oxi_states': True, 'provenance': True, 'charge_density': True, 'eos': False, 'phonon': False, 'insertion_electrodes': False, 'substrates': False}",,,,,,
mp-crgpg,Ti5MnS10,-1.519785353099855,0.025450870312498004,False,0.0,3.21426,16,3.336441853365169,306.0457169799719,-7.145626134375,,True,P-3m1,164,Trigonal,-3m,FiM,,"{'materials': True, 'thermo': True, 'xas': False, 'grain_boundaries': False, 'chemenv': True, 'electronic_structure': True, 'absorption': False, 'bandstructure': False, 'dos': False, 'magnetism': True, 'elasticity': False, 'dielectric': False, 'piezoelectric': False, 'surface_properties': False, 'oxi_states': True, 'provenance': True, 'charge_density': True, 'eos': False, 'phonon': False, 'insertion_electrodes': False, 'substrates': False}",,,,,,
mp-osk,Ti2FeS4,-1.410330176666665,0.024835269999998,False,0.0,2.0765589,7,4.081650209815777,113.84699030327994,-7.240415332857142,,True,C2/m,12,Monoclinic,2/m,FM,"icsd-633328,icsd-42563,icsd-633332","{'materials': True, 'thermo': True, 'xas': True, 'grain_boundaries': False, 'chemenv': True, 'electronic_structure': True, 'absorption': False, 'bandstructure': True, 'dos': True, 'magnetism': True, 'elasticity': True, 'dielectric': False, 'piezoelectric': False, 'surface_properties': False, 'oxi_states': True, 'provenance': True, 'charge_density': True, 'eos': False, 'phonon': False, 'insertion_electrodes': False, 'substrates': True}",,,,,,
mp-crgoo,Ti3FeS6,-1.4885242124999971,0.008529196499980001,False,0.0,2.243300999999999,10,3.696313627086135,176.02916076501947,-7.186612565999998,,True,R-3,148,Trigonal,-3,FiM,,"{'materials': True, 'thermo': True, 'xas': False, 'grain_boundaries': False, 'chemenv': True, 'electronic_structure': True, 'absorption': False, 'bandstructure': True, 'dos': True, 'magnetism': True, 'elasticity': False, 'dielectric': False, 'piezoelectric': False, 'surface_properties': False, 'oxi_states': True, 'provenance': True, 'charge_density': True, 'eos': False, 'phonon': False, 'insertion_electrodes': False, 'substrates': False}",,,,,,
mp-yeh,Ti3FeS6,-1.422708285999998,0.074345122999978,False,0.0,5.752953,20,3.678628135153414,353.7508885350502,-7.1207966395,,True,P-31c,163,Trigonal,-3m,FM,icsd-53533,"{'materials': True, 'thermo': True, 'xas': True, 'grain_boundaries': False, 'chemenv': True, 'electronic_structure': True, 'absorption': False, 'bandstructure': True, 'dos': True, 'magnetism': True, 'elasticity': False, 'dielectric': False, 'piezoelectric': False, 'surface_properties': False, 'oxi_states': True, 'provenance': True, 'charge_density': True, 'eos': False, 'phonon': False, 'insertion_electrodes': False, 'substrates': True}",,,,,,
mp-bsmt,Ti4FeS8,-1.5174760717948712,0.007000732362631001,False,0.0,0.0044935,13,3.7859385293410712,220.984670791232,-7.144489223846154,,False,C2/m,12,Monoclinic,2/m,NM,"icsd-633326,icsd-53534","{'materials': True, 'thermo': True, 'xas': True, 'grain_boundaries': False, 'chemenv': True, 'electronic_structure': True, 'absorption': False, 'bandstructure': True, 'dos': True, 'magnetism': True, 'elasticity': False, 'dielectric': False, 'piezoelectric': False, 'surface_properties': False, 'oxi_states': True, 'provenance': True, 'charge_density': True, 'eos': False, 'phonon': False, 'insertion_electrodes': False, 'substrates': True}",,,,,,
mp-cgirl,Ti2CoS4,-1.414968490952382,0.016245639206328003,False,0.0,1.329931599999999,7,4.096861356316955,114.67599692546418,-7.05411014857143,,True,C2/m,12,Monoclinic,2/m,FiM,icsd-624874,"{'materials': True, 'thermo': True, 'xas': True, 'grain_boundaries': False, 'chemenv': True, 'electronic_structure': True, 'absorption': False, 'bandstructure': True, 'dos': True, 'magnetism': True, 'elasticity': False, 'dielectric': False, 'piezoelectric': False, 'surface_properties': False, 'oxi_states': True, 'provenance': True, 'charge_density': True, 'eos': False, 'phonon': False, 'insertion_electrodes': False, 'substrates': True}",,,,,,
mp-crgov,Ti3CoS6,-1.490067832500001,0.0007883468888780001,False,0.0,1.4607187,10,3.818944884137257,171.7194340423706,-7.054495737000002,,True,R-3,148,Trigonal,-3,FM,,"{'materials': True, 'thermo': True, 'xas': False, 'grain_boundaries': False, 'chemenv': True, 'electronic_structure': True, 'absorption': False, 'bandstructure': True, 'dos': True, 'magnetism': True, 'elasticity': False, 'dielectric': False, 'piezoelectric': False, 'surface_properties': False, 'oxi_states': True, 'provenance': True, 'charge_density': True, 'eos': False, 'phonon': False, 'insertion_electrodes': False, 'substrates': False}",,,,,,
mp-cqtjn,Ti3CoS6,-1.431512806499999,0.059343372888879004,False,0.0,0.039331899999999004,20,3.9908109031745562,328.6485228460209,-6.995940711,,False,P6_322,182,Hexagonal,622,NM,,"{'materials': True, 'thermo': True, 'xas': False, 'grain_boundaries': False, 'chemenv': True, 'electronic_structure': True, 'absorption': False, 'bandstructure': False, 'dos': False, 'magnetism': True, 'elasticity': False, 'dielectric': False, 'piezoelectric': False, 'surface_properties': False, 'oxi_states': True, 'provenance': True, 'charge_density': True, 'eos': False, 'phonon': False, 'insertion_electrodes': False, 'substrates': False}",,,,,,