material_id,formula_pretty,formation_energy_per_atom,energy_above_hull,is_stable,band_gap,total_magnetization,nsites,density,volume,energy_per_atom,e_total,is_magnetic,space_group_symbol,space_group_number,crystal_system,point_group,ordering,icsd_ids,has_props,lattice_a,lattice_b,lattice_c,lattice_alpha,lattice_beta,lattice_gamma
mp-chmnb,Li(MnS2)2,-1.018720345599338,0.006554513571428001,False,0.0,13.9995247,14,3.316621460032779,245.4064096115582,-6.273369531428567,,True,Imma,74,Orthorhombic,mmm,FM,,"{'materials': True, 'thermo': True, 'xas': True, 'grain_boundaries': False, 'chemenv': True, 'electronic_structure': True, 'absorption': False, 'bandstructure': False, 'dos': False, 'magnetism': True, 'elasticity': False, 'dielectric': False, 'piezoelectric': False, 'surface_properties': False, 'oxi_states': True, 'provenance': True, 'charge_density': True, 'eos': False, 'phonon': False, 'insertion_electrodes': True, 'substrates': True}",,,,,,
mp-bqvkw,Li3FeS3,-1.092472075357142,0.16384167928571602,False,0.0,8.0002371,14,2.31930626550983,247.52726186989992,-4.893755353571429,,True,C2/m,12,Monoclinic,2/m,FM,,"{'materials': True, 'thermo': True, 'xas': False, 'grain_boundaries': False, 'chemenv': True, 'electronic_structure': True, 'absorption': False, 'bandstructure': False, 'dos': False, 'magnetism': True, 'elasticity': False, 'dielectric': False, 'piezoelectric': False, 'surface_properties': False, 'oxi_states': True, 'provenance': True, 'charge_density': True, 'eos': False, 'phonon': False, 'insertion_electrodes': False, 'substrates': True}",,,,,,
mp-braqd,Li2FeS2,-1.089106984333333,0.11594140100000201,False,0.23520000000000002,7.9979381,10,2.345758906111565,189.5120400129515,-5.201639458000001,,True,P4_2/mcm,132,Tetragonal,4/mmm,FM,,"{'materials': True, 'thermo': True, 'xas': False, 'grain_boundaries': False, 'chemenv': True, 'electronic_structure': True, 'absorption': False, 'bandstructure': False, 'dos': False, 'magnetism': True, 'elasticity': True, 'dielectric': False, 'piezoelectric': False, 'surface_properties': False, 'oxi_states': True, 'provenance': True, 'charge_density': True, 'eos': False, 'phonon': False, 'insertion_electrodes': False, 'substrates': True}",,,,,,
mp-bqxsc,Li6FeS4,-1.282259547727272,0.085555148181819,False,0.0,8.0000064,22,2.023019958524362,370.6027251431116,-4.598000389545454,,True,P4_2/nmc,137,Tetragonal,4/mmm,FM,,"{'materials': True, 'thermo': True, 'xas': False, 'grain_boundaries': False, 'chemenv': True, 'electronic_structure': True, 'absorption': False, 'bandstructure': False, 'dos': False, 'magnetism': True, 'elasticity': False, 'dielectric': False, 'piezoelectric': False, 'surface_properties': False, 'oxi_states': True, 'provenance': True, 'charge_density': True, 'eos': False, 'phonon': False, 'insertion_electrodes': True, 'substrates': True}",,,,,,
mp-bqyjk,LiFeS2,-0.8723431539583321,0.198615950625002,False,0.0,8.004789,16,3.176208848795501,265.40946922495596,-5.535778029375,,True,P2_1/c,14,Monoclinic,2/m,FM,,"{'materials': True, 'thermo': True, 'xas': False, 'grain_boundaries': False, 'chemenv': True, 'electronic_structure': True, 'absorption': False, 'bandstructure': False, 'dos': False, 'magnetism': True, 'elasticity': False, 'dielectric': False, 'piezoelectric': False, 'surface_properties': False, 'oxi_states': True, 'provenance': True, 'charge_density': True, 'eos': False, 'phonon': False, 'insertion_electrodes': False, 'substrates': True}",,,,,,
mp-brabc,Li2FeS2,-0.946367579333333,0.25868080600000204,False,0.0,6.9933268,10,2.664569438992981,166.83729429988534,-5.058900053,,True,P2_1/c,14,Monoclinic,2/m,FM,,"{'materials': True, 'thermo': True, 'xas': False, 'grain_boundaries': False, 'chemenv': True, 'electronic_structure': True, 'absorption': False, 'bandstructure': False, 'dos': False, 'magnetism': True, 'elasticity': False, 'dielectric': False, 'piezoelectric': False, 'surface_properties': False, 'oxi_states': True, 'provenance': True, 'charge_density': True, 'eos': False, 'phonon': False, 'insertion_electrodes': False, 'substrates': True}",,,,,,
mp-brawi,Li2FeS2,-1.064458409333333,0.140589976000002,False,0.0,15.9991303,20,2.558932870230241,347.44917371416136,-5.176990883,,True,P2_1/c,14,Monoclinic,2/m,FM,,"{'materials': True, 'thermo': True, 'xas': False, 'grain_boundaries': False, 'chemenv': True, 'electronic_structure': True, 'absorption': False, 'bandstructure': False, 'dos': False, 'magnetism': True, 'elasticity': False, 'dielectric': False, 'piezoelectric': False, 'surface_properties': False, 'oxi_states': True, 'provenance': True, 'charge_density': True, 'eos': False, 'phonon': False, 'insertion_electrodes': False, 'substrates': True}",,,,,,
mp-brsks,Li3FeS3,-1.131273414285714,0.125040340357144,False,0.0,15.9989413,28,2.42163530391311,474.1354145371762,-4.9325566925,,True,P2_1/c,14,Monoclinic,2/m,FM,,"{'materials': True, 'thermo': True, 'xas': True, 'grain_boundaries': False, 'chemenv': True, 'electronic_structure': True, 'absorption': False, 'bandstructure': False, 'dos': False, 'magnetism': True, 'elasticity': False, 'dielectric': False, 'piezoelectric': False, 'surface_properties': False, 'oxi_states': True, 'provenance': True, 'charge_density': True, 'eos': False, 'phonon': False, 'insertion_electrodes': False, 'substrates': True}",,,,,,
mp-brsno,Li3FeS3,-1.095195189999999,0.161118564642859,False,0.0,15.9885896,28,2.262790153822927,507.41915097114793,-4.896478468214285,,True,P2_1/c,14,Monoclinic,2/m,FM,,"{'materials': True, 'thermo': True, 'xas': True, 'grain_boundaries': False, 'chemenv': True, 'electronic_structure': True, 'absorption': False, 'bandstructure': False, 'dos': False, 'magnetism': True, 'elasticity': False, 'dielectric': False, 'piezoelectric': False, 'surface_properties': False, 'oxi_states': True, 'provenance': True, 'charge_density': True, 'eos': False, 'phonon': False, 'insertion_electrodes': False, 'substrates': True}",,,,,,
mp-bsdvn,Li2FeS2,-1.079391603333333,0.12565678200000202,False,0.135799999999999,32.0023466,40,2.453125707468865,724.8704040274209,-5.191924077,,True,P2_1/c,14,Monoclinic,2/m,FM,,"{'materials': True, 'thermo': True, 'xas': True, 'grain_boundaries': False, 'chemenv': True, 'electronic_structure': True, 'absorption': False, 'bandstructure': False, 'dos': False, 'magnetism': True, 'elasticity': False, 'dielectric': False, 'piezoelectric': False, 'surface_properties': False, 'oxi_states': True, 'provenance': True, 'charge_density': True, 'eos': False, 'phonon': False, 'insertion_electrodes': False, 'substrates': True}",,,,,,
mp-bsgne,Li3FeS3,-1.115498085357142,0.140815669285715,False,0.0,16.0003327,28,2.407026694654208,477.0130141176727,-4.916781363571429,,True,P2_1/c,14,Monoclinic,2/m,FM,,"{'materials': True, 'thermo': True, 'xas': True, 'grain_boundaries': False, 'chemenv': True, 'electronic_structure': True, 'absorption': False, 'bandstructure': False, 'dos': False, 'magnetism': True, 'elasticity': False, 'dielectric': False, 'piezoelectric': False, 'surface_properties': False, 'oxi_states': True, 'provenance': True, 'charge_density': True, 'eos': False, 'phonon': False, 'insertion_electrodes': False, 'substrates': True}",,,,,,
mp-bqxhv,Li2FeS2,-1.029617706333333,0.175430679000003,False,0.0,3.9982942,5,2.7345280258132263,81.28451262508949,-5.14215018,,True,P3m1,156,Trigonal,3m,FM,,"{'materials': True, 'thermo': True, 'xas': False, 'grain_boundaries': False, 'chemenv': True, 'electronic_structure': True, 'absorption': False, 'bandstructure': False, 'dos': False, 'magnetism': True, 'elasticity': False, 'dielectric': False, 'piezoelectric': False, 'surface_properties': False, 'oxi_states': True, 'provenance': True, 'charge_density': True, 'eos': False, 'phonon': False, 'insertion_electrodes': False, 'substrates': True}",,,,,,
mp-bqxzr,Li2FeS2,-0.9691203863333321,0.23592799900000203,False,0.0,3.9998074,5,2.912470104576639,76.31830365866927,-5.08165286,,True,P-3m1,164,Trigonal,-3m,FM,icsd-632443,"{'materials': True, 'thermo': True, 'xas': True, 'grain_boundaries': False, 'chemenv': True, 'electronic_structure': True, 'absorption': False, 'bandstructure': True, 'dos': True, 'magnetism': True, 'elasticity': False, 'dielectric': False, 'piezoelectric': False, 'surface_properties': False, 'oxi_states': True, 'provenance': True, 'charge_density': True, 'eos': False, 'phonon': False, 'insertion_electrodes': True, 'substrates': True}",,,,,,
mp-bramo,LiFeS2,-0.9606142245833321,0.110344880000002,False,0.0,0.9934873999999991,4,3.644613266960636,57.824784343266174,-5.6240491,,True,P-3m1,164,Trigonal,-3m,FM,,"{'materials': True, 'thermo': True, 'xas': False, 'grain_boundaries': False, 'chemenv': True, 'electronic_structure': True, 'absorption': False, 'bandstructure': False, 'dos': False, 'magnetism': True, 'elasticity': False, 'dielectric': False, 'piezoelectric': False, 'surface_properties': False, 'oxi_states': True, 'provenance': True, 'charge_density': True, 'eos': False, 'phonon': False, 'insertion_electrodes': True, 'substrates': True}",,,,,,
mp-brsrw,Li8FeS6,-1.267781715777777,0.104476308666667,False,0.0,8.0007458,30,1.8650837817518662,540.8983053981894,-4.505501077000001,,True,P6_3cm,185,Hexagonal,6mm,FM,,"{'materials': True, 'thermo': True, 'xas': True, 'grain_boundaries': False, 'chemenv': True, 'electronic_structure': True, 'absorption': False, 'bandstructure': True, 'dos': True, 'magnetism': True, 'elasticity': False, 'dielectric': False, 'piezoelectric': False, 'surface_properties': False, 'oxi_states': True, 'provenance': True, 'charge_density': True, 'eos': False, 'phonon': False, 'insertion_electrodes': False, 'substrates': True}",,,,,,
mp-brbbt,Li6FeS4,-1.141906447727272,0.225908248181818,False,0.0,0.8492889,22,2.11085025110299,355.18232961162005,-4.457647289545455,,True,P6_3mc,186,Hexagonal,6mm,FM,,"{'materials': True, 'thermo': True, 'xas': False, 'grain_boundaries': False, 'chemenv': True, 'electronic_structure': True, 'absorption': False, 'bandstructure': False, 'dos': False, 'magnetism': True, 'elasticity': False, 'dielectric': False, 'piezoelectric': False, 'surface_properties': False, 'oxi_states': True, 'provenance': True, 'charge_density': False, 'eos': False, 'phonon': False, 'insertion_electrodes': False, 'substrates': True}",,,,,,
mp-coysh,LiFeS2,-0.9091858864583321,0.161773218125001,False,0.0,4.0017913,16,3.647597266622284,231.10991786849482,-5.572620761875,,True,Fd-3m,227,Cubic,m-3m,FM,,"{'materials': True, 'thermo': True, 'xas': False, 'grain_boundaries': False, 'chemenv': True, 'electronic_structure': True, 'absorption': False, 'bandstructure': False, 'dos': False, 'magnetism': True, 'elasticity': False, 'dielectric': False, 'piezoelectric': False, 'surface_properties': False, 'oxi_states': True, 'provenance': True, 'charge_density': True, 'eos': False, 'phonon': False, 'insertion_electrodes': True, 'substrates': False}",,,,,,
mp-cozcl,Li6FeS4,-1.208518330909091,0.15929636500000002,False,0.0,3.9964084,11,2.337936405134654,160.3415533462408,-4.524259172727273,,True,Imm2,44,Orthorhombic,mm2,FM,,"{'materials': True, 'thermo': True, 'xas': False, 'grain_boundaries': False, 'chemenv': True, 'electronic_structure': True, 'absorption': False, 'bandstructure': False, 'dos': False, 'magnetism': True, 'elasticity': False, 'dielectric': False, 'piezoelectric': False, 'surface_properties': False, 'oxi_states': True, 'provenance': True, 'charge_density': True, 'eos': False, 'phonon': False, 'insertion_electrodes': False, 'substrates': False}",,,,,,
mp-brcbt,Li5FeS4,-1.157464482666665,0.17299113200000102,False,0.0,4.4999793,10,2.165730290284211,167.76906837973078,-4.6138871219999995,,True,Imm2,44,Orthorhombic,mm2,FM,,"{'materials': True, 'thermo': True, 'xas': False, 'grain_boundaries': False, 'chemenv': True, 'electronic_structure': True, 'absorption': False, 'bandstructure': False, 'dos': False, 'magnetism': True, 'elasticity': False, 'dielectric': False, 'piezoelectric': False, 'surface_properties': False, 'oxi_states': True, 'provenance': True, 'charge_density': True, 'eos': False, 'phonon': False, 'insertion_electrodes': False, 'substrates': True}",,,,,,
mp-brapp,Li5FeS4,-1.2668583406666651,0.06359727400000101,False,0.0,9.999509399999999,20,1.990164950458083,365.1381289567119,-4.72328098,,True,Pmmn,59,Orthorhombic,mmm,FM,,"{'materials': True, 'thermo': True, 'xas': False, 'grain_boundaries': False, 'chemenv': True, 'electronic_structure': True, 'absorption': False, 'bandstructure': False, 'dos': False, 'magnetism': True, 'elasticity': False, 'dielectric': False, 'piezoelectric': False, 'surface_properties': False, 'oxi_states': True, 'provenance': True, 'charge_density': True, 'eos': False, 'phonon': False, 'insertion_electrodes': True, 'substrates': True}",,,,,,
mp-cozsu,Li4FeS3,-1.145328004479166,0.17162221937500102,False,0.8322,31.996443,64,1.934181355410053,1234.926871757165,-4.71006623125,,True,Pbca,61,Orthorhombic,mmm,FM,,"{'materials': True, 'thermo': True, 'xas': False, 'grain_boundaries': False, 'chemenv': True, 'electronic_structure': True, 'absorption': False, 'bandstructure': False, 'dos': False, 'magnetism': True, 'elasticity': False, 'dielectric': False, 'piezoelectric': False, 'surface_properties': False, 'oxi_states': True, 'provenance': True, 'charge_density': True, 'eos': False, 'phonon': False, 'insertion_electrodes': False, 'substrates': False}",,,,,,
mp-bsfcf,Li5FeS4,-1.2636491814166662,0.066806433249999,False,0.7011000000000001,39.9789495,80,1.991413123414913,1459.6370743592538,-4.72007182075,,True,Pbca,61,Orthorhombic,mmm,FM,,"{'materials': True, 'thermo': True, 'xas': True, 'grain_boundaries': False, 'chemenv': True, 'electronic_structure': True, 'absorption': False, 'bandstructure': False, 'dos': False, 'magnetism': True, 'elasticity': False, 'dielectric': False, 'piezoelectric': False, 'surface_properties': False, 'oxi_states': True, 'provenance': True, 'charge_density': False, 'eos': False, 'phonon': False, 'insertion_electrodes': False, 'substrates': True}",,,,,,
mp-bsfcv,Li5FeS4,-1.229985837791665,0.10046977687500101,False,0.0,39.9481677,80,2.075891297416595,1400.2372999585034,-4.686408477125,,True,Pbca,61,Orthorhombic,mmm,FM,,"{'materials': True, 'thermo': True, 'xas': True, 'grain_boundaries': False, 'chemenv': True, 'electronic_structure': True, 'absorption': False, 'bandstructure': False, 'dos': False, 'magnetism': True, 'elasticity': False, 'dielectric': False, 'piezoelectric': False, 'surface_properties': False, 'oxi_states': True, 'provenance': True, 'charge_density': False, 'eos': False, 'phonon': False, 'insertion_electrodes': False, 'substrates': True}",,,,,,
mp-cozhe,Li5FeS4,-1.157736231666665,0.172719383000001,False,0.0,4.5154761,10,2.191287955658856,165.81232613652526,-4.614158871,,True,Immm,71,Orthorhombic,mmm,FM,,"{'materials': True, 'thermo': True, 'xas': False, 'grain_boundaries': False, 'chemenv': True, 'electronic_structure': True, 'absorption': False, 'bandstructure': False, 'dos': False, 'magnetism': True, 'elasticity': False, 'dielectric': False, 'piezoelectric': False, 'surface_properties': False, 'oxi_states': True, 'provenance': True, 'charge_density': True, 'eos': False, 'phonon': False, 'insertion_electrodes': False, 'substrates': False}",,,,,,
mp-cpape,Li2FeS2,-0.941587666333332,0.263460719000002,False,0.010400000000000001,2.0004993,5,2.550558685070783,87.14748621112693,-5.05412014,,True,Immm,71,Orthorhombic,mmm,FM,,"{'materials': True, 'thermo': True, 'xas': False, 'grain_boundaries': False, 'chemenv': True, 'electronic_structure': True, 'absorption': False, 'bandstructure': False, 'dos': False, 'magnetism': True, 'elasticity': False, 'dielectric': False, 'piezoelectric': False, 'surface_properties': False, 'oxi_states': True, 'provenance': True, 'charge_density': True, 'eos': False, 'phonon': False, 'insertion_electrodes': False, 'substrates': False}",,,,,,
mp-cpaop,Li2FeS2,-1.025138584333333,0.179909801000002,False,0.0,0.005977499999999,10,2.9734018613912783,149.5087365916103,-5.1376710580000005,,False,Ibam,72,Orthorhombic,mmm,NM,,"{'materials': True, 'thermo': True, 'xas': False, 'grain_boundaries': False, 'chemenv': True, 'electronic_structure': True, 'absorption': False, 'bandstructure': False, 'dos': False, 'magnetism': True, 'elasticity': False, 'dielectric': False, 'piezoelectric': False, 'surface_properties': False, 'oxi_states': True, 'provenance': True, 'charge_density': True, 'eos': False, 'phonon': False, 'insertion_electrodes': False, 'substrates': False}",,,,,,
mp-bqzob,Li2Fe2S3,-0.8426041113095231,0.234556458571429,False,0.0,15.8274229,14,2.9409529567145203,250.4309131106095,-5.581187152857143,,True,P2_1/c,14,Monoclinic,2/m,FM,,"{'materials': True, 'thermo': True, 'xas': False, 'grain_boundaries': False, 'chemenv': True, 'electronic_structure': True, 'absorption': False, 'bandstructure': False, 'dos': False, 'magnetism': True, 'elasticity': False, 'dielectric': False, 'piezoelectric': False, 'surface_properties': False, 'oxi_states': True, 'provenance': True, 'charge_density': True, 'eos': False, 'phonon': False, 'insertion_electrodes': False, 'substrates': True}",,,,,,
mp-brbze,Li2Fe2S3,-0.8277495884523801,0.24941098142857202,False,0.0,15.9068677,14,2.882073811555765,255.54707565514886,-5.56633263,,True,P2_1/c,14,Monoclinic,2/m,FM,,"{'materials': True, 'thermo': True, 'xas': False, 'grain_boundaries': False, 'chemenv': True, 'electronic_structure': True, 'absorption': False, 'bandstructure': False, 'dos': False, 'magnetism': True, 'elasticity': False, 'dielectric': False, 'piezoelectric': False, 'surface_properties': False, 'oxi_states': True, 'provenance': True, 'charge_density': True, 'eos': False, 'phonon': False, 'insertion_electrodes': False, 'substrates': True}",,,,,,
mp-bqwub,Li14Fe2S9,-1.3167674537666652,0.06732387320000201,False,0.0,7.999999,25,1.9370908437254801,426.4299223842526,-4.5528291324,,True,P-3,147,Trigonal,-3,FM,,"{'materials': True, 'thermo': True, 'xas': False, 'grain_boundaries': False, 'chemenv': True, 'electronic_structure': True, 'absorption': False, 'bandstructure': False, 'dos': False, 'magnetism': True, 'elasticity': False, 'dielectric': False, 'piezoelectric': False, 'surface_properties': False, 'oxi_states': True, 'provenance': True, 'charge_density': True, 'eos': False, 'phonon': False, 'insertion_electrodes': False, 'substrates': True}",,,,,,
mp-bqxda,Li3(FeS2)2,-0.9757611061111101,0.169692043333336,False,0.0,16.6145373,18,2.73541929572239,316.6050299430425,-5.333139091666666,,True,C2/c,15,Monoclinic,2/m,FM,,"{'materials': True, 'thermo': True, 'xas': False, 'grain_boundaries': False, 'chemenv': True, 'electronic_structure': True, 'absorption': False, 'bandstructure': False, 'dos': False, 'magnetism': True, 'elasticity': False, 'dielectric': False, 'piezoelectric': False, 'surface_properties': False, 'oxi_states': True, 'provenance': True, 'charge_density': True, 'eos': False, 'phonon': False, 'insertion_electrodes': False, 'substrates': True}",,,,,,
mp-brski,Li2Fe2S3,-0.8975792820238081,0.179581287857144,False,0.0,30.9537117,28,3.003368430553783,490.45300394901057,-5.636162323571428,,True,C2/c,15,Monoclinic,2/m,FM,,"{'materials': True, 'thermo': True, 'xas': True, 'grain_boundaries': False, 'chemenv': True, 'electronic_structure': True, 'absorption': False, 'bandstructure': False, 'dos': False, 'magnetism': True, 'elasticity': False, 'dielectric': False, 'piezoelectric': False, 'surface_properties': False, 'oxi_states': True, 'provenance': True, 'charge_density': True, 'eos': False, 'phonon': False, 'insertion_electrodes': False, 'substrates': True}",,,,,,