material_id,formula_pretty,formation_energy_per_atom,energy_above_hull,is_stable,band_gap,total_magnetization,nsites,density,volume,energy_per_atom,e_total,is_magnetic,space_group_symbol,space_group_number,crystal_system,point_group,ordering,icsd_ids,has_props,lattice_a,lattice_b,lattice_c,lattice_alpha,lattice_beta,lattice_gamma
mp-dbezz,Ca(CrS2)4,-0.9296620838461531,0.22971830730769502,False,0.0,1.5189922,13,3.261836229241411,256.87334637081057,-6.60019835,,True,R-3m,166,Trigonal,-3m,FiM,,"{'materials': True, 'thermo': True, 'xas': False, 'grain_boundaries': False, 'chemenv': True, 'electronic_structure': True, 'absorption': False, 'bandstructure': False, 'dos': True, 'magnetism': True, 'elasticity': False, 'dielectric': False, 'piezoelectric': False, 'surface_properties': False, 'oxi_states': True, 'provenance': True, 'charge_density': False, 'eos': False, 'phonon': False, 'insertion_electrodes': True, 'substrates': True}",,,,,,
mp-dbibi,Ca(CrS2)4,-1.158483009999998,0.0008973811538500001,False,0.0,10.0113139,13,3.117702326009307,268.74880918836203,-6.829019276153845,,True,R-3m,166,Trigonal,-3m,FiM,,"{'materials': True, 'thermo': True, 'xas': False, 'grain_boundaries': False, 'chemenv': True, 'electronic_structure': True, 'absorption': False, 'bandstructure': False, 'dos': True, 'magnetism': True, 'elasticity': False, 'dielectric': False, 'piezoelectric': False, 'surface_properties': False, 'oxi_states': True, 'provenance': True, 'charge_density': False, 'eos': False, 'phonon': False, 'insertion_electrodes': False, 'substrates': True}",,,,,,
mp-cxpyd,Ca(MnS2)2,-1.232367208602214,0.132119511428573,False,0.4626,16.0003811,14,2.954492425449091,312.7341680379128,-11.02395463142857,,True,I4_1/amd,141,Tetragonal,4/mmm,FM,,"{'materials': True, 'thermo': True, 'xas': True, 'grain_boundaries': False, 'chemenv': True, 'electronic_structure': True, 'absorption': False, 'bandstructure': False, 'dos': False, 'magnetism': True, 'elasticity': False, 'dielectric': False, 'piezoelectric': False, 'surface_properties': False, 'oxi_states': True, 'provenance': True, 'charge_density': True, 'eos': False, 'phonon': False, 'insertion_electrodes': False, 'substrates': True}",,,,,,
mp-crveh,CaMnS2,-1.758302847526938,0.029920982500000002,False,0.33330000000000004,4.999921599999999,4,3.280696978055683,80.55246393831871,-11.205728554999999,,True,R-3m,166,Trigonal,-3m,FM,,"{'materials': True, 'thermo': True, 'xas': False, 'grain_boundaries': False, 'chemenv': True, 'electronic_structure': True, 'absorption': False, 'bandstructure': True, 'dos': True, 'magnetism': True, 'elasticity': False, 'dielectric': False, 'piezoelectric': False, 'surface_properties': False, 'oxi_states': True, 'provenance': True, 'charge_density': True, 'eos': False, 'phonon': False, 'insertion_electrodes': True, 'substrates': False}",,,,,,
mp-dbjwu,Ca(MnS2)4,-1.062181336187002,0.041544085384616,False,0.0,13.9993196,13,3.054824754973434,280.6771958162289,-11.065560583846153,,True,R-3m,166,Trigonal,-3m,FM,,"{'materials': True, 'thermo': True, 'xas': False, 'grain_boundaries': False, 'chemenv': True, 'electronic_structure': True, 'absorption': False, 'bandstructure': False, 'dos': True, 'magnetism': True, 'elasticity': False, 'dielectric': False, 'piezoelectric': False, 'surface_properties': False, 'oxi_states': True, 'provenance': True, 'charge_density': True, 'eos': False, 'phonon': False, 'insertion_electrodes': True, 'substrates': True}",,,,,,
mp-dcazi,Ca(MnS2)4,-1.044663691571615,0.059061730000003004,False,0.0,10.0,13,3.487437237463639,245.85952020158228,-11.048042939230767,,True,R-3m,166,Trigonal,-3m,FM,,"{'materials': True, 'thermo': True, 'xas': False, 'grain_boundaries': False, 'chemenv': True, 'electronic_structure': True, 'absorption': False, 'bandstructure': False, 'dos': True, 'magnetism': True, 'elasticity': False, 'dielectric': False, 'piezoelectric': False, 'surface_properties': False, 'oxi_states': True, 'provenance': True, 'charge_density': True, 'eos': False, 'phonon': False, 'insertion_electrodes': True, 'substrates': True}",,,,,,
mp-dbbus,Ca(MnS2)2,-1.209705307173641,0.154781412857145,False,0.0,0.0265684,14,3.030553344140801,304.88515651226516,-11.001292729999998,,True,Fd-3m,227,Cubic,m-3m,AFM,,"{'materials': True, 'thermo': True, 'xas': True, 'grain_boundaries': False, 'chemenv': True, 'electronic_structure': True, 'absorption': False, 'bandstructure': False, 'dos': False, 'magnetism': True, 'elasticity': False, 'dielectric': False, 'piezoelectric': False, 'surface_properties': False, 'oxi_states': True, 'provenance': True, 'charge_density': True, 'eos': False, 'phonon': False, 'insertion_electrodes': True, 'substrates': True}",,,,,,
mp-cyrxo,CaMn2S5,-0.9919649197535041,0.21668524187499802,False,0.0,12.0005014,16,2.812233458279427,366.42089509120933,-10.563858568125003,,True,Pmmn,59,Orthorhombic,mmm,FM,,"{'materials': True, 'thermo': True, 'xas': True, 'grain_boundaries': False, 'chemenv': True, 'electronic_structure': True, 'absorption': False, 'bandstructure': False, 'dos': False, 'magnetism': True, 'elasticity': False, 'dielectric': False, 'piezoelectric': False, 'surface_properties': False, 'oxi_states': True, 'provenance': True, 'charge_density': True, 'eos': False, 'phonon': False, 'insertion_electrodes': False, 'substrates': True}",,,,,,
mp-chmoh,Ca(MnS2)2,-1.280349655745072,0.084137064285716,False,0.0,15.889855,14,3.1244225739429012,295.72527684087277,-11.071937078571427,,True,Imma,74,Orthorhombic,mmm,FM,,"{'materials': True, 'thermo': True, 'xas': True, 'grain_boundaries': False, 'chemenv': True, 'electronic_structure': True, 'absorption': False, 'bandstructure': False, 'dos': True, 'magnetism': True, 'elasticity': False, 'dielectric': False, 'piezoelectric': False, 'surface_properties': False, 'oxi_states': True, 'provenance': True, 'charge_density': True, 'eos': False, 'phonon': False, 'insertion_electrodes': True, 'substrates': True}",,,,,,
mp-dbhsp,Ca(FeS2)2,-0.9831343935714271,0.28204135642857103,False,0.0,0.5195482,14,3.514933839208154,264.58388977621246,-6.053881986428571,,True,I4_1/amd,141,Tetragonal,4/mmm,FM,,"{'materials': True, 'thermo': True, 'xas': True, 'grain_boundaries': False, 'chemenv': True, 'electronic_structure': True, 'absorption': False, 'bandstructure': False, 'dos': True, 'magnetism': True, 'elasticity': False, 'dielectric': False, 'piezoelectric': False, 'surface_properties': False, 'oxi_states': True, 'provenance': True, 'charge_density': True, 'eos': False, 'phonon': False, 'insertion_electrodes': True, 'substrates': True}",,,,,,
mp-dbhvg,Ca(FeS2)4,-0.7995125199999991,0.272879177692307,False,0.0,5.9992982999999995,13,3.812561913358847,226.47337994620128,-6.106040706153847,,True,R-3m,166,Trigonal,-3m,FM,,"{'materials': True, 'thermo': True, 'xas': False, 'grain_boundaries': False, 'chemenv': True, 'electronic_structure': True, 'absorption': False, 'bandstructure': False, 'dos': True, 'magnetism': True, 'elasticity': False, 'dielectric': False, 'piezoelectric': False, 'surface_properties': False, 'oxi_states': True, 'provenance': True, 'charge_density': True, 'eos': False, 'phonon': False, 'insertion_electrodes': True, 'substrates': True}",,,,,,
mp-daywi,Ca(FeS2)4,-0.878370849999999,0.194020847692308,False,0.0,6.005164,13,3.4787528381838753,248.20498119185316,-6.184899036153846,,True,R-3m,166,Trigonal,-3m,FM,,"{'materials': True, 'thermo': True, 'xas': False, 'grain_boundaries': False, 'chemenv': True, 'electronic_structure': True, 'absorption': False, 'bandstructure': False, 'dos': True, 'magnetism': True, 'elasticity': False, 'dielectric': False, 'piezoelectric': False, 'surface_properties': False, 'oxi_states': True, 'provenance': True, 'charge_density': True, 'eos': False, 'phonon': False, 'insertion_electrodes': False, 'substrates': True}",,,,,,
mp-dazkx,Ca(FeS2)2,-0.89834862642857,0.36682712357142805,False,0.0,3.9986254,14,3.47790682148539,267.40074280843874,-5.969096219285714,,True,Fd-3m,227,Cubic,m-3m,FM,,"{'materials': True, 'thermo': True, 'xas': True, 'grain_boundaries': False, 'chemenv': True, 'electronic_structure': True, 'absorption': False, 'bandstructure': False, 'dos': True, 'magnetism': True, 'elasticity': False, 'dielectric': False, 'piezoelectric': False, 'surface_properties': False, 'oxi_states': True, 'provenance': True, 'charge_density': True, 'eos': False, 'phonon': False, 'insertion_electrodes': True, 'substrates': True}",,,,,,
mp-cybwv,CaFe2S5,-0.852683200937499,0.382789186249999,False,0.0,6.537109,16,3.126968230431815,331.4665073145483,-5.8067620587499995,,True,Pmmn,59,Orthorhombic,mmm,FM,,"{'materials': True, 'thermo': True, 'xas': True, 'grain_boundaries': False, 'chemenv': True, 'electronic_structure': True, 'absorption': False, 'bandstructure': False, 'dos': False, 'magnetism': True, 'elasticity': False, 'dielectric': False, 'piezoelectric': False, 'surface_properties': False, 'oxi_states': True, 'provenance': True, 'charge_density': True, 'eos': False, 'phonon': False, 'insertion_electrodes': False, 'substrates': True}",,,,,,
mp-chmjw,Ca(FeS2)2,-0.8909793449999991,0.374196405,False,0.0,11.3452178,14,3.476374091782359,267.518639516415,-5.961726937857143,,True,Imma,74,Orthorhombic,mmm,FM,,"{'materials': True, 'thermo': True, 'xas': True, 'grain_boundaries': False, 'chemenv': True, 'electronic_structure': True, 'absorption': False, 'bandstructure': False, 'dos': True, 'magnetism': True, 'elasticity': False, 'dielectric': False, 'piezoelectric': False, 'surface_properties': False, 'oxi_states': True, 'provenance': True, 'charge_density': True, 'eos': False, 'phonon': False, 'insertion_electrodes': False, 'substrates': True}",,,,,,
mp-chmpr,Ca(FeS2)2,-1.001386859999999,0.263788889999999,False,0.0,3.996679099999999,14,3.78398071463341,245.7715664055193,-6.072134452857143,,True,Imma,74,Orthorhombic,mmm,FM,,"{'materials': True, 'thermo': True, 'xas': True, 'grain_boundaries': False, 'chemenv': True, 'electronic_structure': True, 'absorption': False, 'bandstructure': False, 'dos': True, 'magnetism': True, 'elasticity': False, 'dielectric': False, 'piezoelectric': False, 'surface_properties': False, 'oxi_states': True, 'provenance': True, 'charge_density': True, 'eos': False, 'phonon': False, 'insertion_electrodes': True, 'substrates': True}",,,,,,
mp-dbjlt,Ca(CoS2)2,-0.8199845494642861,0.22959540571428602,False,0.6970000000000001,0.0001801,14,3.661798932997359,259.57382113190164,-10.197542387857144,,False,I4_1/amd,141,Tetragonal,4/mmm,NM,,"{'materials': True, 'thermo': True, 'xas': True, 'grain_boundaries': False, 'chemenv': True, 'electronic_structure': True, 'absorption': False, 'bandstructure': False, 'dos': True, 'magnetism': True, 'elasticity': False, 'dielectric': False, 'piezoelectric': False, 'surface_properties': False, 'oxi_states': True, 'provenance': True, 'charge_density': True, 'eos': False, 'phonon': False, 'insertion_electrodes': True, 'substrates': True}",,,,,,
mp-dcgkm,Ca(CoS2)4,-0.645834478269235,0.12923784923077,False,0.0,0.0011137,13,3.834000019773292,230.5571340596704,-10.203335711923081,,False,R-3m,166,Trigonal,-3m,NM,,"{'materials': True, 'thermo': True, 'xas': False, 'grain_boundaries': False, 'chemenv': True, 'electronic_structure': True, 'absorption': False, 'bandstructure': False, 'dos': True, 'magnetism': True, 'elasticity': False, 'dielectric': False, 'piezoelectric': False, 'surface_properties': False, 'oxi_states': True, 'provenance': True, 'charge_density': True, 'eos': False, 'phonon': False, 'insertion_electrodes': True, 'substrates': True}",,,,,,
mp-dbuxn,Ca(CoS2)4,-0.6746416198076961,0.10043070769231101,False,0.0,0.4343861,13,3.595823773737661,245.82852558005808,-10.232142853461541,,True,R-3m,166,Trigonal,-3m,FM,,"{'materials': True, 'thermo': True, 'xas': False, 'grain_boundaries': False, 'chemenv': True, 'electronic_structure': True, 'absorption': False, 'bandstructure': False, 'dos': True, 'magnetism': True, 'elasticity': False, 'dielectric': False, 'piezoelectric': False, 'surface_properties': False, 'oxi_states': True, 'provenance': True, 'charge_density': True, 'eos': False, 'phonon': False, 'insertion_electrodes': False, 'substrates': True}",,,,,,
mp-dcehk,Ca(CoS2)2,-0.8209887408928561,0.22859121428571602,False,0.9638999999999991,4.3600000000000016e-05,14,3.651401009584638,260.31299732892626,-10.198546579285715,,False,Fd-3m,227,Cubic,m-3m,NM,,"{'materials': True, 'thermo': True, 'xas': True, 'grain_boundaries': False, 'chemenv': True, 'electronic_structure': True, 'absorption': False, 'bandstructure': False, 'dos': True, 'magnetism': True, 'elasticity': False, 'dielectric': False, 'piezoelectric': False, 'surface_properties': False, 'oxi_states': True, 'provenance': True, 'charge_density': True, 'eos': False, 'phonon': False, 'insertion_electrodes': True, 'substrates': True}",,,,,,
mp-cymhg,CaCo2S5,-0.641863188632811,0.30826911437500104,False,0.0,0.2586057,16,3.288668989514404,321.4058681387621,-9.851480950625,,False,Pmmn,59,Orthorhombic,mmm,NM,,"{'materials': True, 'thermo': True, 'xas': True, 'grain_boundaries': False, 'chemenv': True, 'electronic_structure': True, 'absorption': False, 'bandstructure': False, 'dos': True, 'magnetism': True, 'elasticity': False, 'dielectric': False, 'piezoelectric': False, 'surface_properties': False, 'oxi_states': True, 'provenance': True, 'charge_density': True, 'eos': False, 'phonon': False, 'insertion_electrodes': False, 'substrates': True}",,,,,,
mp-daxvk,Ca(NiS2)2,-0.8149136428571411,0.326662344285715,False,0.0,0.1538578,14,3.5803867703796692,265.03125116070044,-5.117122798571429,,False,I4_1/amd,141,Tetragonal,4/mmm,NM,,"{'materials': True, 'thermo': True, 'xas': True, 'grain_boundaries': False, 'chemenv': True, 'electronic_structure': True, 'absorption': False, 'bandstructure': False, 'dos': True, 'magnetism': True, 'elasticity': False, 'dielectric': False, 'piezoelectric': False, 'surface_properties': False, 'oxi_states': True, 'provenance': True, 'charge_density': False, 'eos': False, 'phonon': False, 'insertion_electrodes': True, 'substrates': True}",,,,,,
mp-chmpm,Ca(NiS2)2,-0.9063288585714281,0.23524712857142902,False,0.0,4.003732,14,3.600543505621919,263.5475405063986,-5.208538014285715,,True,P-1,2,Triclinic,-1,FM,,"{'materials': True, 'thermo': True, 'xas': True, 'grain_boundaries': False, 'chemenv': True, 'electronic_structure': True, 'absorption': False, 'bandstructure': True, 'dos': True, 'magnetism': True, 'elasticity': False, 'dielectric': False, 'piezoelectric': False, 'surface_properties': False, 'oxi_states': True, 'provenance': True, 'charge_density': True, 'eos': False, 'phonon': False, 'insertion_electrodes': True, 'substrates': True}",,,,,,
mp-cyivu,CaNi2S5,-0.9119595209374981,0.13155004250000002,False,0.0,0.0017234,16,2.9968445950525373,352.1720003354059,-5.19356724625,,False,Pmmn,59,Orthorhombic,mmm,NM,,"{'materials': True, 'thermo': True, 'xas': True, 'grain_boundaries': False, 'chemenv': True, 'electronic_structure': True, 'absorption': False, 'bandstructure': False, 'dos': False, 'magnetism': True, 'elasticity': False, 'dielectric': False, 'piezoelectric': False, 'surface_properties': False, 'oxi_states': True, 'provenance': True, 'charge_density': True, 'eos': False, 'phonon': False, 'insertion_electrodes': False, 'substrates': True}",,,,,,
mp-dbknj,Ca(NiS2)4,-0.771058979230768,0.11664803153845602,False,0.0,1.7861957,13,3.493283318579569,252.58853067793333,-5.249930386923078,,True,R-3m,166,Trigonal,-3m,FM,,"{'materials': True, 'thermo': True, 'xas': False, 'grain_boundaries': False, 'chemenv': True, 'electronic_structure': True, 'absorption': False, 'bandstructure': False, 'dos': True, 'magnetism': True, 'elasticity': False, 'dielectric': False, 'piezoelectric': False, 'surface_properties': False, 'oxi_states': True, 'provenance': True, 'charge_density': True, 'eos': False, 'phonon': False, 'insertion_electrodes': False, 'substrates': True}",,,,,,
mp-decrt,Ca(NiS2)4,-0.7159596361538441,0.17174737461538,False,0.0,0.020321,13,3.725505124246234,236.84393693063922,-5.194831043846154,,False,R-3m,166,Trigonal,-3m,NM,,"{'materials': True, 'thermo': True, 'xas': False, 'grain_boundaries': False, 'chemenv': True, 'electronic_structure': True, 'absorption': False, 'bandstructure': False, 'dos': True, 'magnetism': True, 'elasticity': False, 'dielectric': False, 'piezoelectric': False, 'surface_properties': False, 'oxi_states': True, 'provenance': True, 'charge_density': True, 'eos': False, 'phonon': False, 'insertion_electrodes': True, 'substrates': True}",,,,,,
mp-ckkov,CaCuS2,-1.170909423906248,0.18602774833333402,False,0.0,0.0005017,4,3.421225072725942,81.42173188169272,-9.6592004625,,False,P4/mmm,123,Tetragonal,4/mmm,NM,,"{'materials': True, 'thermo': True, 'xas': False, 'grain_boundaries': False, 'chemenv': True, 'electronic_structure': True, 'absorption': False, 'bandstructure': True, 'dos': True, 'magnetism': True, 'elasticity': False, 'dielectric': False, 'piezoelectric': False, 'surface_properties': False, 'oxi_states': True, 'provenance': True, 'charge_density': True, 'eos': False, 'phonon': False, 'insertion_electrodes': False, 'substrates': False}",,,,,,
mp-lnh,CaZrS3,-2.032196183999998,0.036572482499994,False,1.1878,6.06e-05,20,3.352008296890533,450.7956097659229,-6.625294913499999,,False,Pnma,62,Orthorhombic,mmm,NM,icsd-23286,"{'materials': True, 'thermo': True, 'xas': True, 'grain_boundaries': False, 'chemenv': True, 'electronic_structure': True, 'absorption': False, 'bandstructure': True, 'dos': True, 'magnetism': True, 'elasticity': True, 'dielectric': False, 'piezoelectric': False, 'surface_properties': False, 'oxi_states': True, 'provenance': True, 'charge_density': True, 'eos': False, 'phonon': False, 'insertion_electrodes': False, 'substrates': True}",,,,,,
mp-mqc,Ca(Mo3S4)2,-1.010161165500001,0.002543269333333,False,0.0,2.36e-05,15,5.164519221156684,280.44919814407416,-16.192992376,,False,R-3,148,Trigonal,-3,NM,"icsd-619421,icsd-619423,icsd-62388","{'materials': True, 'thermo': True, 'xas': True, 'grain_boundaries': False, 'chemenv': True, 'electronic_structure': True, 'absorption': False, 'bandstructure': True, 'dos': True, 'magnetism': True, 'elasticity': False, 'dielectric': False, 'piezoelectric': False, 'surface_properties': False, 'oxi_states': True, 'provenance': True, 'charge_density': True, 'eos': False, 'phonon': False, 'insertion_electrodes': True, 'substrates': True}",,,,,,
mp-ckvla,Ca(Mo3S4)2,-1.012704434833333,0.0,True,0.0,0.0,15,5.139191538254371,281.83134712761137,-16.195535645333333,,False,P-1,2,Triclinic,-1,NM,icsd-619422,"{'materials': True, 'thermo': True, 'xas': True, 'grain_boundaries': False, 'chemenv': True, 'electronic_structure': True, 'absorption': False, 'bandstructure': False, 'dos': True, 'magnetism': True, 'elasticity': False, 'dielectric': False, 'piezoelectric': False, 'surface_properties': False, 'oxi_states': True, 'provenance': True, 'charge_density': False, 'eos': False, 'phonon': False, 'insertion_electrodes': True, 'substrates': False}",,,,,,
mp-cphqo,Ca(Mo3S4)2,-0.48445590983333303,0.5282485250000001,False,0.0,0.019735,15,5.061343900933061,286.16614534057646,-15.667287120333333,,False,P-1,2,Triclinic,-1,NM,,"{'materials': True, 'thermo': True, 'xas': False, 'grain_boundaries': False, 'chemenv': True, 'electronic_structure': True, 'absorption': False, 'bandstructure': False, 'dos': False, 'magnetism': True, 'elasticity': False, 'dielectric': False, 'piezoelectric': False, 'surface_properties': False, 'oxi_states': True, 'provenance': True, 'charge_density': True, 'eos': False, 'phonon': False, 'insertion_electrodes': False, 'substrates': False}",,,,,,