material_id,formula_pretty,formation_energy_per_atom,energy_above_hull,is_stable,band_gap,total_magnetization,nsites,density,volume,energy_per_atom,e_total,is_magnetic,space_group_symbol,space_group_number,crystal_system,point_group,ordering,icsd_ids,has_props,lattice_a,lattice_b,lattice_c,lattice_alpha,lattice_beta,lattice_gamma
mp-bxftg,KMo6S7,-0.519576061852678,0.36070473196429703,False,0.0,0.0064597,112,4.774388676283494,2334.9808380723953,-16.14017614517857,,False,Pc,7,Monoclinic,m,NM,,"{'materials': True, 'thermo': True, 'xas': True, 'grain_boundaries': False, 'chemenv': True, 'electronic_structure': True, 'absorption': False, 'bandstructure': False, 'dos': False, 'magnetism': True, 'elasticity': False, 'dielectric': False, 'piezoelectric': False, 'surface_properties': False, 'oxi_states': True, 'provenance': True, 'charge_density': False, 'eos': False, 'phonon': False, 'insertion_electrodes': False, 'substrates': True}",,,,,,
mp-bsbo,K2Mo9S11,-0.9017229585653421,0.021014349318200003,False,0.0,0.006471699999999,44,4.651573396460788,924.1408982745123,-16.13166624636364,,False,R-3c,167,Trigonal,-3m,NM,"icsd-280261,icsd-641242,icsd-641250","{'materials': True, 'thermo': True, 'xas': True, 'grain_boundaries': False, 'chemenv': True, 'electronic_structure': True, 'absorption': False, 'bandstructure': False, 'dos': False, 'magnetism': True, 'elasticity': False, 'dielectric': False, 'piezoelectric': False, 'surface_properties': False, 'oxi_states': True, 'provenance': True, 'charge_density': False, 'eos': False, 'phonon': False, 'insertion_electrodes': True, 'substrates': True}",,,,,,
mp-crrev,K(MoS)9,-0.7345373531085451,0.06663942315790501,False,0.0,0.002036999999999,38,4.378741667068096,903.4284888029149,-17.206769665789466,,False,P6_3/m,176,Hexagonal,6/m,NM,,"{'materials': True, 'thermo': True, 'xas': False, 'grain_boundaries': False, 'chemenv': True, 'electronic_structure': True, 'absorption': False, 'bandstructure': False, 'dos': True, 'magnetism': True, 'elasticity': False, 'dielectric': False, 'piezoelectric': False, 'surface_properties': False, 'oxi_states': True, 'provenance': True, 'charge_density': True, 'eos': False, 'phonon': False, 'insertion_electrodes': True, 'substrates': False}",,,,,,
mp-bfwvw,K(Mo6S7)2,-0.7717077430787,0.060456250925938,False,0.0,0.0084675,54,4.429231941436519,1229.1531803084802,-16.74794990592592,,False,P-31c,163,Trigonal,-3m,NM,icsd-171363,"{'materials': True, 'thermo': True, 'xas': True, 'grain_boundaries': False, 'chemenv': True, 'electronic_structure': True, 'absorption': False, 'bandstructure': False, 'dos': False, 'magnetism': True, 'elasticity': False, 'dielectric': False, 'piezoelectric': False, 'surface_properties': False, 'oxi_states': True, 'provenance': True, 'charge_density': True, 'eos': False, 'phonon': False, 'insertion_electrodes': False, 'substrates': True}",,,,,,
mp-bfnks,K2Mo15S19,-0.855816561970489,0.030125974583345004,False,0.0,0.0173957,72,4.782714689830908,1476.6462259049151,-16.293675639444448,,False,R-3c,167,Trigonal,-3m,NM,"icsd-280948,icsd-641243,icsd-641246","{'materials': True, 'thermo': True, 'xas': True, 'grain_boundaries': False, 'chemenv': True, 'electronic_structure': True, 'absorption': False, 'bandstructure': False, 'dos': False, 'magnetism': True, 'elasticity': False, 'dielectric': False, 'piezoelectric': False, 'surface_properties': False, 'oxi_states': True, 'provenance': True, 'charge_density': False, 'eos': False, 'phonon': False, 'insertion_electrodes': False, 'substrates': True}",,,,,,
mp-bmmoh,K5(Mo6S7)4,-0.638399397587716,0.264673564561416,False,0.0,0.193412,57,4.765868814147757,1183.2002748720047,-16.09053744324561,,False,P-3,147,Trigonal,-3,NM,,"{'materials': True, 'thermo': True, 'xas': True, 'grain_boundaries': False, 'chemenv': True, 'electronic_structure': True, 'absorption': False, 'bandstructure': False, 'dos': False, 'magnetism': True, 'elasticity': False, 'dielectric': False, 'piezoelectric': False, 'surface_properties': False, 'oxi_states': True, 'provenance': True, 'charge_density': True, 'eos': False, 'phonon': False, 'insertion_electrodes': False, 'substrates': True}",,,,,,
mp-bnaby,K7(Mo9S11)4,-0.8788045220689611,0.029487991781607003,False,0.0,0.0158749,174,4.656439811952759,3664.814546727405,-16.214629181724135,,False,Pc,7,Monoclinic,m,NM,,"{'materials': True, 'thermo': True, 'xas': False, 'grain_boundaries': False, 'chemenv': True, 'electronic_structure': True, 'absorption': False, 'bandstructure': False, 'dos': False, 'magnetism': True, 'elasticity': False, 'dielectric': False, 'piezoelectric': False, 'surface_properties': False, 'oxi_states': True, 'provenance': True, 'charge_density': False, 'eos': False, 'phonon': False, 'insertion_electrodes': True, 'substrates': True}",,,,,,
mp-bmmxd,K9(Mo6S7)8,-0.455338579612835,0.43643914867256706,False,0.0,3.211688199999999,113,4.7946900377797785,2338.6350814893813,-15.99096223685841,,True,P-3,147,Trigonal,-3,FM,,"{'materials': True, 'thermo': True, 'xas': False, 'grain_boundaries': False, 'chemenv': True, 'electronic_structure': True, 'absorption': False, 'bandstructure': False, 'dos': False, 'magnetism': True, 'elasticity': False, 'dielectric': False, 'piezoelectric': False, 'surface_properties': False, 'oxi_states': True, 'provenance': True, 'charge_density': False, 'eos': False, 'phonon': False, 'insertion_electrodes': False, 'substrates': True}",,,,,,
mp-civhd,K2PdS2,-1.068710574624998,0.0,True,1.117,0.0,5,3.412676519986726,121.035042309117,-11.281721762,10.187615410000001,False,Immm,71,Orthorhombic,mmm,NM,icsd-641296,"{'materials': True, 'thermo': True, 'xas': True, 'grain_boundaries': False, 'chemenv': True, 'electronic_structure': True, 'absorption': True, 'bandstructure': True, 'dos': True, 'magnetism': True, 'elasticity': False, 'dielectric': True, 'piezoelectric': False, 'surface_properties': False, 'oxi_states': True, 'provenance': True, 'charge_density': True, 'eos': False, 'phonon': False, 'insertion_electrodes': False, 'substrates': False}",,,,,,
mp-ore,K2Pd3S4,-0.832547670972221,0.0,True,1.2114,0.0,18,4.123008563914228,423.4640499661529,-13.394107405555555,12.958365209999966,False,Fddd,70,Orthorhombic,mmm,NM,icsd-41885,"{'materials': True, 'thermo': True, 'xas': True, 'grain_boundaries': False, 'chemenv': True, 'electronic_structure': True, 'absorption': False, 'bandstructure': True, 'dos': True, 'magnetism': True, 'elasticity': False, 'dielectric': True, 'piezoelectric': False, 'surface_properties': False, 'oxi_states': True, 'provenance': True, 'charge_density': True, 'eos': False, 'phonon': False, 'insertion_electrodes': False, 'substrates': True}",,,,,,
mp-bbmn,KAg3S2,-0.49008505429397703,0.009250882175926001,False,1.336599999999999,5.08e-05,24,4.7712093399252815,594.2080138211021,-14.84908002523148,,False,Fd-3m,227,Cubic,m-3m,NM,icsd-73581,"{'materials': True, 'thermo': True, 'xas': True, 'grain_boundaries': False, 'chemenv': True, 'electronic_structure': True, 'absorption': False, 'bandstructure': True, 'dos': True, 'magnetism': True, 'elasticity': False, 'dielectric': False, 'piezoelectric': False, 'surface_properties': False, 'oxi_states': True, 'provenance': True, 'charge_density': True, 'eos': False, 'phonon': False, 'insertion_electrodes': False, 'substrates': True}",,,,,,
mp-lcg,K2Ag4S3,-0.599046196770831,0.0,True,0.128299999999999,0.0,18,4.8759258979306015,412.664805135432,-14.105951545,,False,C2/m,12,Monoclinic,2/m,NM,icsd-863,"{'materials': True, 'thermo': True, 'xas': True, 'grain_boundaries': False, 'chemenv': True, 'electronic_structure': True, 'absorption': False, 'bandstructure': True, 'dos': True, 'magnetism': True, 'elasticity': False, 'dielectric': False, 'piezoelectric': False, 'surface_properties': False, 'oxi_states': True, 'provenance': True, 'charge_density': True, 'eos': False, 'phonon': False, 'insertion_electrodes': False, 'substrates': True}",,,,,,
mp-bqcy,KAg5S3,-0.39962567616898104,0.0,True,0.6972,0.0,54,5.5112885111143175,1219.5949552187483,-15.610710269814815,,False,P-62c,190,Hexagonal,-6m2,NM,"icsd-59334,icsd-237452","{'materials': True, 'thermo': True, 'xas': True, 'grain_boundaries': False, 'chemenv': True, 'electronic_structure': True, 'absorption': False, 'bandstructure': False, 'dos': False, 'magnetism': True, 'elasticity': False, 'dielectric': False, 'piezoelectric': False, 'surface_properties': False, 'oxi_states': True, 'provenance': True, 'charge_density': True, 'eos': False, 'phonon': False, 'insertion_electrodes': False, 'substrates': True}",,,,,,
mp-bauf,K2Cd3S4,-1.009371341805555,0.0,True,1.9018000000000002,0.0,36,3.782273258427136,954.7885720764292,-12.619109103055557,,False,Pnma,62,Orthorhombic,mmm,NM,icsd-81655,"{'materials': True, 'thermo': True, 'xas': True, 'grain_boundaries': False, 'chemenv': True, 'electronic_structure': True, 'absorption': False, 'bandstructure': False, 'dos': False, 'magnetism': True, 'elasticity': False, 'dielectric': False, 'piezoelectric': False, 'surface_properties': False, 'oxi_states': True, 'provenance': True, 'charge_density': False, 'eos': False, 'phonon': False, 'insertion_electrodes': False, 'substrates': True}",,,,,,
mp-buie,KTaS5,-1.165397501369046,0.0,True,1.3034,0.0,56,3.780327008162937,1336.6488197129358,-5.977581191071429,,False,P2_1/c,14,Monoclinic,2/m,NM,icsd-414535,"{'materials': True, 'thermo': True, 'xas': True, 'grain_boundaries': False, 'chemenv': True, 'electronic_structure': True, 'absorption': False, 'bandstructure': False, 'dos': True, 'magnetism': True, 'elasticity': False, 'dielectric': False, 'piezoelectric': False, 'surface_properties': False, 'oxi_states': True, 'provenance': True, 'charge_density': False, 'eos': False, 'phonon': False, 'insertion_electrodes': False, 'substrates': True}",,,,,,
mp-bawa,K3TaS4,-1.513084057697914,0.0,True,2.8164,0.0,32,2.986233383714418,948.6526164577024,-5.489412502812499,,False,Pnma,62,Orthorhombic,mmm,NM,icsd-59355,"{'materials': True, 'thermo': True, 'xas': True, 'grain_boundaries': False, 'chemenv': True, 'electronic_structure': True, 'absorption': False, 'bandstructure': False, 'dos': False, 'magnetism': True, 'elasticity': False, 'dielectric': False, 'piezoelectric': False, 'surface_properties': False, 'oxi_states': True, 'provenance': True, 'charge_density': True, 'eos': False, 'phonon': False, 'insertion_electrodes': False, 'substrates': True}",,,,,,
mp-bfuwt,K3Ta2S11,-1.19162018118229,0.0,True,1.792,3.2e-06,64,3.3733437881811392,1638.0326879170475,-5.731578874375,,False,P2_1/c,14,Monoclinic,2/m,NM,icsd-391137,"{'materials': True, 'thermo': True, 'xas': True, 'grain_boundaries': False, 'chemenv': True, 'electronic_structure': True, 'absorption': False, 'bandstructure': False, 'dos': False, 'magnetism': True, 'elasticity': False, 'dielectric': False, 'piezoelectric': False, 'surface_properties': False, 'oxi_states': True, 'provenance': True, 'charge_density': False, 'eos': False, 'phonon': False, 'insertion_electrodes': False, 'substrates': True}",,,,,,
mp-bmsng,K3Ta2S11,-1.190392673526041,0.001227507656249,False,1.761299999999999,2e-07,64,3.241318735278296,1704.7528626178753,-5.73035136671875,,False,C2/c,15,Monoclinic,2/m,NM,icsd-391136,"{'materials': True, 'thermo': True, 'xas': True, 'grain_boundaries': False, 'chemenv': True, 'electronic_structure': True, 'absorption': False, 'bandstructure': False, 'dos': False, 'magnetism': True, 'elasticity': False, 'dielectric': False, 'piezoelectric': False, 'surface_properties': False, 'oxi_states': True, 'provenance': True, 'charge_density': False, 'eos': False, 'phonon': False, 'insertion_electrodes': False, 'substrates': True}",,,,,,
mp-bbpw,K4Ta2S11,-1.256588606833332,0.0,True,1.7377999999999991,0.0,34,3.067950369221467,942.8679924247474,-5.596042066470589,,False,P-1,2,Triclinic,-1,NM,icsd-410672,"{'materials': True, 'thermo': True, 'xas': True, 'grain_boundaries': False, 'chemenv': True, 'electronic_structure': True, 'absorption': False, 'bandstructure': False, 'dos': False, 'magnetism': True, 'elasticity': False, 'dielectric': False, 'piezoelectric': False, 'surface_properties': False, 'oxi_states': True, 'provenance': True, 'charge_density': True, 'eos': False, 'phonon': False, 'insertion_electrodes': False, 'substrates': True}",,,,,,
mp-glt,K4Ta2S11,-1.243817459039215,0.012771147794112,False,1.7211,1.4200000000000001e-05,68,3.2593850079289,1774.9803711128238,-5.583270918676471,,False,Pca2_1,29,Orthorhombic,mm2,NM,"icsd-410671,icsd-63252","{'materials': True, 'thermo': True, 'xas': True, 'grain_boundaries': False, 'chemenv': True, 'electronic_structure': True, 'absorption': False, 'bandstructure': False, 'dos': False, 'magnetism': True, 'elasticity': False, 'dielectric': False, 'piezoelectric': False, 'surface_properties': False, 'oxi_states': True, 'provenance': True, 'charge_density': False, 'eos': False, 'phonon': False, 'insertion_electrodes': False, 'substrates': True}",,,,,,
mp-crqfu,K2(TaS2)3,-1.486517682863632,0.0,True,0.0,0.1274966,22,5.717464396410408,472.49360829316004,-7.18541844181818,,False,R32,155,Trigonal,32,NM,,"{'materials': True, 'thermo': True, 'xas': False, 'grain_boundaries': False, 'chemenv': True, 'electronic_structure': True, 'absorption': False, 'bandstructure': False, 'dos': False, 'magnetism': True, 'elasticity': False, 'dielectric': False, 'piezoelectric': False, 'surface_properties': False, 'oxi_states': True, 'provenance': True, 'charge_density': True, 'eos': False, 'phonon': False, 'insertion_electrodes': False, 'substrates': False}",,,,,,
mp-cqyst,K2WS4,-1.134914741964286,0.0,True,1.9435,0.0,28,3.220415034886207,804.9928283657441,-14.783553479285715,,False,Pnma,62,Orthorhombic,mmm,NM,,"{'materials': True, 'thermo': True, 'xas': False, 'grain_boundaries': False, 'chemenv': True, 'electronic_structure': True, 'absorption': False, 'bandstructure': False, 'dos': False, 'magnetism': True, 'elasticity': False, 'dielectric': False, 'piezoelectric': False, 'surface_properties': False, 'oxi_states': True, 'provenance': True, 'charge_density': True, 'eos': False, 'phonon': False, 'insertion_electrodes': False, 'substrates': False}",,,,,,
mp-bevgg,K2(ReS2)3,-1.058067123136363,0.0,True,1.469599999999999,0.0,44,5.687691984057335,968.3587775014405,-6.915473336136364,,False,C2/c,15,Monoclinic,2/m,NM,"icsd-200836,icsd-641314,icsd-641312,icsd-641311","{'materials': True, 'thermo': True, 'xas': True, 'grain_boundaries': False, 'chemenv': True, 'electronic_structure': True, 'absorption': False, 'bandstructure': False, 'dos': False, 'magnetism': True, 'elasticity': False, 'dielectric': False, 'piezoelectric': False, 'surface_properties': False, 'oxi_states': True, 'provenance': True, 'charge_density': True, 'eos': False, 'phonon': False, 'insertion_electrodes': False, 'substrates': True}",,,,,,
mp-cjlll,K2PtS6,-0.318588307757925,0.36414701201389105,False,0.0,8.8e-06,9,2.993341942954218,258.32806214712116,-12.732862545049592,,False,C2/m,12,Monoclinic,2/m,NM,,"{'materials': True, 'thermo': True, 'xas': False, 'grain_boundaries': False, 'chemenv': True, 'electronic_structure': True, 'absorption': False, 'bandstructure': True, 'dos': True, 'magnetism': True, 'elasticity': False, 'dielectric': False, 'piezoelectric': False, 'surface_properties': False, 'oxi_states': True, 'provenance': True, 'charge_density': True, 'eos': False, 'phonon': False, 'insertion_electrodes': False, 'substrates': False}",,,,,,
mp-cqyyf,K2PtS6,-0.26379353998014604,0.418941779791669,False,0.1779,1.9996857,9,2.123732886143136,364.1061587888154,-12.678067777271814,,True,P-1,2,Triclinic,-1,FM,,"{'materials': True, 'thermo': True, 'xas': False, 'grain_boundaries': False, 'chemenv': True, 'electronic_structure': True, 'absorption': False, 'bandstructure': False, 'dos': False, 'magnetism': True, 'elasticity': False, 'dielectric': False, 'piezoelectric': False, 'surface_properties': False, 'oxi_states': True, 'provenance': True, 'charge_density': True, 'eos': False, 'phonon': False, 'insertion_electrodes': False, 'substrates': False}",,,,,,
mp-lsy,K2PtS2,-1.110685690624998,0.0,True,1.235599999999999,0.0,5,4.635077073055109,120.87900027423865,-17.029149536,9.940057533246959,False,Immm,71,Orthorhombic,mmm,NM,icsd-26258,"{'materials': True, 'thermo': True, 'xas': True, 'grain_boundaries': False, 'chemenv': True, 'electronic_structure': True, 'absorption': True, 'bandstructure': True, 'dos': True, 'magnetism': True, 'elasticity': True, 'dielectric': True, 'piezoelectric': False, 'surface_properties': False, 'oxi_states': True, 'provenance': True, 'charge_density': True, 'eos': False, 'phonon': True, 'insertion_electrodes': False, 'substrates': True}",,,,,,
mp-bldml,K2PtS15,-0.336692208315971,0.011499891128476,False,1.8956,0.0,36,2.626488451203281,953.7227467556726,-10.560847940555554,,False,Cc,9,Monoclinic,m,NM,icsd-12164,"{'materials': True, 'thermo': True, 'xas': True, 'grain_boundaries': False, 'chemenv': True, 'electronic_structure': True, 'absorption': False, 'bandstructure': False, 'dos': False, 'magnetism': True, 'elasticity': False, 'dielectric': False, 'piezoelectric': False, 'surface_properties': False, 'oxi_states': True, 'provenance': True, 'charge_density': True, 'eos': False, 'phonon': False, 'insertion_electrodes': False, 'substrates': True}",,,,,,
mp-btej,KPt2S3,-0.802294120364583,0.0,True,1.273899999999999,0.0,12,6.253417026308305,279.0631147628836,-22.984929023333333,11.930129953333335,False,R-3m,166,Trigonal,-3m,NM,icsd-40062,"{'materials': True, 'thermo': True, 'xas': True, 'grain_boundaries': False, 'chemenv': True, 'electronic_structure': True, 'absorption': False, 'bandstructure': True, 'dos': True, 'magnetism': True, 'elasticity': True, 'dielectric': True, 'piezoelectric': False, 'surface_properties': False, 'oxi_states': True, 'provenance': True, 'charge_density': True, 'eos': False, 'phonon': False, 'insertion_electrodes': False, 'substrates': True}",,,,,,
mp-kmf,KAuS,-0.8778747771875001,0.0,True,2.1003,0.0,6,5.359956059761335,166.1357359771586,-22.423628548333337,13.630562453309501,False,Cmcm,63,Orthorhombic,mmm,NM,"icsd-656711,icsd-202178","{'materials': True, 'thermo': True, 'xas': False, 'grain_boundaries': False, 'chemenv': True, 'electronic_structure': True, 'absorption': True, 'bandstructure': True, 'dos': True, 'magnetism': True, 'elasticity': True, 'dielectric': True, 'piezoelectric': False, 'surface_properties': False, 'oxi_states': True, 'provenance': True, 'charge_density': True, 'eos': False, 'phonon': True, 'insertion_electrodes': False, 'substrates': True}",,,,,,
mp-fie,KAuS5,-0.40721415183035703,0.0,True,1.7779,0.0,28,3.673633652161608,716.6973361011667,-14.231987040714285,8.730410106666666,False,Ibam,72,Orthorhombic,mmm,NM,"icsd-84000,icsd-402875","{'materials': True, 'thermo': True, 'xas': True, 'grain_boundaries': False, 'chemenv': True, 'electronic_structure': True, 'absorption': False, 'bandstructure': True, 'dos': True, 'magnetism': True, 'elasticity': False, 'dielectric': True, 'piezoelectric': False, 'surface_properties': False, 'oxi_states': True, 'provenance': True, 'charge_density': True, 'eos': False, 'phonon': False, 'insertion_electrodes': False, 'substrates': True}",,,,,,
mp-brkn,K4Au6S5,-0.7493380739375001,0.0,True,1.5841999999999992,0.0,30,6.1721230375750125,806.318028622085,-25.266204926,,False,P-62c,190,Hexagonal,-6m2,NM,icsd-202552,"{'materials': True, 'thermo': True, 'xas': True, 'grain_boundaries': False, 'chemenv': True, 'electronic_structure': True, 'absorption': False, 'bandstructure': True, 'dos': True, 'magnetism': True, 'elasticity': False, 'dielectric': False, 'piezoelectric': False, 'surface_properties': False, 'oxi_states': True, 'provenance': True, 'charge_density': True, 'eos': False, 'phonon': False, 'insertion_electrodes': False, 'substrates': True}",,,,,,