material_id,formula_pretty,formation_energy_per_atom,energy_above_hull,is_stable,band_gap,total_magnetization,nsites,density,volume,energy_per_atom,e_total,is_magnetic,space_group_symbol,space_group_number,crystal_system,point_group,ordering,icsd_ids,has_props,lattice_a,lattice_b,lattice_c,lattice_alpha,lattice_beta,lattice_gamma
mp-csmnv,Cr2CuS4,-0.783912019999998,0.137175084285713,False,0.0,2.4883202,7,4.599235525828703,106.79698053546778,-6.4917538,,True,C2/m,12,Monoclinic,2/m,FM,,"{'materials': True, 'thermo': True, 'xas': False, 'grain_boundaries': False, 'chemenv': True, 'electronic_structure': True, 'absorption': False, 'bandstructure': False, 'dos': True, 'magnetism': True, 'elasticity': False, 'dielectric': False, 'piezoelectric': False, 'surface_properties': False, 'oxi_states': True, 'provenance': True, 'charge_density': True, 'eos': False, 'phonon': False, 'insertion_electrodes': False, 'substrates': False}",,,,,,
mp-csmou,Cr2CuS4,-0.711339200714283,0.20974790357142703,False,0.0,20.0004946,28,3.688039373978587,532.7323459674234,-6.419180980714286,,True,P-1,2,Triclinic,-1,FiM,,"{'materials': True, 'thermo': True, 'xas': False, 'grain_boundaries': False, 'chemenv': True, 'electronic_structure': True, 'absorption': False, 'bandstructure': False, 'dos': False, 'magnetism': True, 'elasticity': False, 'dielectric': False, 'piezoelectric': False, 'surface_properties': False, 'oxi_states': True, 'provenance': True, 'charge_density': True, 'eos': False, 'phonon': False, 'insertion_electrodes': False, 'substrates': False}",,,,,,
mp-bhtb,Cr2CuS4,-0.9210871042857111,0.0,True,0.0,10.2040626,14,4.133107759090052,237.68287475674214,-6.628928884285713,,True,Fd-3m,227,Cubic,m-3m,FiM,"icsd-600702,icsd-625755,icsd-625754,icsd-603567,icsd-625765,icsd-290999,icsd-291003,icsd-625769,icsd-625751,icsd-291000,icsd-659111,icsd-625758,icsd-53111,icsd-625760,icsd-291001,icsd-291002","{'materials': True, 'thermo': True, 'xas': True, 'grain_boundaries': False, 'chemenv': True, 'electronic_structure': True, 'absorption': False, 'bandstructure': True, 'dos': True, 'magnetism': True, 'elasticity': True, 'dielectric': False, 'piezoelectric': False, 'surface_properties': False, 'oxi_states': True, 'provenance': True, 'charge_density': True, 'eos': True, 'phonon': False, 'insertion_electrodes': True, 'substrates': True}",,,,,,
mp-csmpt,Cr2CuS4,-0.7482831182142841,0.17280398607142702,False,0.0,20.000953,28,4.060596735560948,483.85446663873716,-6.456124898214286,,True,Pmmn,59,Orthorhombic,mmm,FiM,,"{'materials': True, 'thermo': True, 'xas': False, 'grain_boundaries': False, 'chemenv': True, 'electronic_structure': True, 'absorption': False, 'bandstructure': False, 'dos': False, 'magnetism': True, 'elasticity': False, 'dielectric': False, 'piezoelectric': False, 'surface_properties': False, 'oxi_states': True, 'provenance': True, 'charge_density': True, 'eos': False, 'phonon': False, 'insertion_electrodes': False, 'substrates': False}",,,,,,
mp-csmqt,Cr2CuS4,-0.7119030478571411,0.20918405642856902,False,0.0,20.2522134,28,4.355018799300715,451.1433723398205,-6.419744827857143,,True,Pnma,62,Orthorhombic,mmm,FiM,,"{'materials': True, 'thermo': True, 'xas': False, 'grain_boundaries': False, 'chemenv': True, 'electronic_structure': True, 'absorption': False, 'bandstructure': False, 'dos': False, 'magnetism': True, 'elasticity': False, 'dielectric': False, 'piezoelectric': False, 'surface_properties': False, 'oxi_states': True, 'provenance': True, 'charge_density': True, 'eos': False, 'phonon': False, 'insertion_electrodes': False, 'substrates': False}",,,,,,
mp-csndj,Cr2CuS4,-0.821157164642855,0.09992993964285601,False,0.0,20.0014607,28,4.197528891841555,468.0701237193541,-6.528998944642857,,True,Pnma,62,Orthorhombic,mmm,FiM,,"{'materials': True, 'thermo': True, 'xas': False, 'grain_boundaries': False, 'chemenv': True, 'electronic_structure': True, 'absorption': False, 'bandstructure': False, 'dos': False, 'magnetism': True, 'elasticity': False, 'dielectric': False, 'piezoelectric': False, 'surface_properties': False, 'oxi_states': True, 'provenance': True, 'charge_density': True, 'eos': False, 'phonon': False, 'insertion_electrodes': False, 'substrates': False}",,,,,,
mp-csmon,Cr2CuS4,-0.719499162142855,0.20158794214285602,False,0.0,20.2972469,28,4.319078821397558,454.89743275490736,-6.427340942142857,,True,Pnma,62,Orthorhombic,mmm,FiM,,"{'materials': True, 'thermo': True, 'xas': False, 'grain_boundaries': False, 'chemenv': True, 'electronic_structure': True, 'absorption': False, 'bandstructure': False, 'dos': False, 'magnetism': True, 'elasticity': False, 'dielectric': False, 'piezoelectric': False, 'surface_properties': False, 'oxi_states': True, 'provenance': True, 'charge_density': True, 'eos': False, 'phonon': False, 'insertion_electrodes': False, 'substrates': False}",,,,,,
mp-cjmsk,Zn3CrS4,-0.885334916249999,0.129302189166663,False,0.0,3.9985247,8,3.82532835060504,163.4277735572148,-4.63306856,,True,P-43m,215,Cubic,-43m,FM,icsd-186187,"{'materials': True, 'thermo': True, 'xas': False, 'grain_boundaries': False, 'chemenv': True, 'electronic_structure': True, 'absorption': False, 'bandstructure': True, 'dos': True, 'magnetism': True, 'elasticity': False, 'dielectric': False, 'piezoelectric': False, 'surface_properties': False, 'oxi_states': True, 'provenance': True, 'charge_density': True, 'eos': False, 'phonon': False, 'insertion_electrodes': False, 'substrates': False}",,,,,,
mp-gfi,Zn(CrS2)2,-1.047598752857139,0.0,True,0.0344,11.9993711,14,3.950808665421528,250.21614209621526,-6.349802952857141,,True,Fd-3m,227,Cubic,m-3m,FM,"icsd-166481,icsd-164168,icsd-626674,icsd-626670,icsd-626671,icsd-85198,icsd-626675,icsd-601922,icsd-42019,icsd-85197,icsd-626666,icsd-53209,icsd-85199,icsd-164169,icsd-626672","{'materials': True, 'thermo': True, 'xas': True, 'grain_boundaries': False, 'chemenv': True, 'electronic_structure': True, 'absorption': False, 'bandstructure': True, 'dos': True, 'magnetism': True, 'elasticity': False, 'dielectric': False, 'piezoelectric': False, 'surface_properties': False, 'oxi_states': True, 'provenance': True, 'charge_density': True, 'eos': True, 'phonon': False, 'insertion_electrodes': True, 'substrates': True}",,,,,,
mp-chqts,ZnCr2S5,-0.7179926090624981,0.19980645062500002,False,0.0,11.9995367,16,3.331397269157126,328.7048599401014,-5.874595998125,,True,Pmmn,59,Orthorhombic,mmm,FM,,"{'materials': True, 'thermo': True, 'xas': False, 'grain_boundaries': False, 'chemenv': True, 'electronic_structure': True, 'absorption': False, 'bandstructure': False, 'dos': True, 'magnetism': True, 'elasticity': False, 'dielectric': False, 'piezoelectric': False, 'surface_properties': False, 'oxi_states': True, 'provenance': True, 'charge_density': True, 'eos': False, 'phonon': False, 'insertion_electrodes': False, 'substrates': False}",,,,,,
mp-chmno,Zn(CrS2)2,-0.8883041999999981,0.159294552857138,False,0.0,12.0,14,3.9633472953314453,249.42454666703662,-6.1905084,,True,Imma,74,Orthorhombic,mmm,FM,,"{'materials': True, 'thermo': True, 'xas': True, 'grain_boundaries': False, 'chemenv': True, 'electronic_structure': True, 'absorption': False, 'bandstructure': False, 'dos': True, 'magnetism': True, 'elasticity': False, 'dielectric': False, 'piezoelectric': False, 'surface_properties': False, 'oxi_states': True, 'provenance': True, 'charge_density': True, 'eos': False, 'phonon': False, 'insertion_electrodes': True, 'substrates': True}",,,,,,
mp-dbwyr,Zn(CrS2)4,-0.623067797692307,0.342187689999982,False,0.0,0.150898199999999,13,3.720409271308454,236.5175007494162,-6.236230504615384,,True,R-3m,166,Trigonal,-3m,FM,,"{'materials': True, 'thermo': True, 'xas': False, 'grain_boundaries': False, 'chemenv': True, 'electronic_structure': True, 'absorption': False, 'bandstructure': False, 'dos': True, 'magnetism': True, 'elasticity': False, 'dielectric': False, 'piezoelectric': False, 'surface_properties': False, 'oxi_states': True, 'provenance': True, 'charge_density': False, 'eos': False, 'phonon': False, 'insertion_electrodes': True, 'substrates': True}",,,,,,
mp-defnx,Zn(CrS2)4,-0.888698993846153,0.07655649384613501,False,0.0,10.0003801,13,3.620863544719986,243.01990167455517,-6.501861700769231,,True,R-3m,166,Trigonal,-3m,FiM,,"{'materials': True, 'thermo': True, 'xas': False, 'grain_boundaries': False, 'chemenv': True, 'electronic_structure': True, 'absorption': False, 'bandstructure': False, 'dos': True, 'magnetism': True, 'elasticity': False, 'dielectric': False, 'piezoelectric': False, 'surface_properties': False, 'oxi_states': True, 'provenance': True, 'charge_density': True, 'eos': False, 'phonon': False, 'insertion_electrodes': False, 'substrates': True}",,,,,,
mp-csztz,ZrCrS4,-1.2915900425,0.109305597083339,False,0.0,3.9987901999999993,12,3.578652405988245,251.9402617030559,-7.083313200833333,,True,Imma,74,Orthorhombic,mmm,FM,,"{'materials': True, 'thermo': True, 'xas': False, 'grain_boundaries': False, 'chemenv': True, 'electronic_structure': True, 'absorption': False, 'bandstructure': False, 'dos': False, 'magnetism': True, 'elasticity': False, 'dielectric': False, 'piezoelectric': False, 'surface_properties': False, 'oxi_states': True, 'provenance': True, 'charge_density': True, 'eos': False, 'phonon': False, 'insertion_electrodes': False, 'substrates': False}",,,,,,
mp-cqvwk,NbCrS5,-0.9678718496428551,0.061470667619045,False,0.0,0.4214019,14,3.708697602025733,273.3262234499934,-6.7452062885714295,,True,P2_1/m,11,Monoclinic,2/m,FM,,"{'materials': True, 'thermo': True, 'xas': False, 'grain_boundaries': False, 'chemenv': True, 'electronic_structure': True, 'absorption': False, 'bandstructure': False, 'dos': True, 'magnetism': True, 'elasticity': False, 'dielectric': False, 'piezoelectric': False, 'surface_properties': False, 'oxi_states': True, 'provenance': True, 'charge_density': False, 'eos': False, 'phonon': False, 'insertion_electrodes': False, 'substrates': False}",,,,,,
mp-cszui,NbCr3S8,-0.966482930833333,0.055458349027790003,False,0.0,7.0001839,12,3.702222414294031,226.6910863412225,-6.97978536,,True,R-3m,166,Trigonal,-3m,FM,,"{'materials': True, 'thermo': True, 'xas': False, 'grain_boundaries': False, 'chemenv': True, 'electronic_structure': True, 'absorption': False, 'bandstructure': False, 'dos': False, 'magnetism': True, 'elasticity': False, 'dielectric': False, 'piezoelectric': False, 'surface_properties': False, 'oxi_states': True, 'provenance': True, 'charge_density': True, 'eos': False, 'phonon': False, 'insertion_electrodes': False, 'substrates': False}",,,,,,
mp-cprgu,Nb3CrS6,-1.382076497499998,0.0,True,0.0,6.0368431,20,4.872158125248628,356.5716319680581,-7.860211384,,True,P6_322,182,Hexagonal,622,FM,icsd-626392,"{'materials': True, 'thermo': True, 'xas': True, 'grain_boundaries': False, 'chemenv': True, 'electronic_structure': True, 'absorption': False, 'bandstructure': True, 'dos': True, 'magnetism': True, 'elasticity': False, 'dielectric': False, 'piezoelectric': False, 'surface_properties': False, 'oxi_states': True, 'provenance': True, 'charge_density': True, 'eos': False, 'phonon': False, 'insertion_electrodes': False, 'substrates': False}",,,,,,
mp-hwc,Nb4CrS8,-1.3976660511538461,0.0,True,0.0,5.00507,26,4.7950191943392095,471.0728716848243,-7.794392922692309,,True,P6_3/mmc,194,Hexagonal,6/mmm,FiM,"icsd-626393,icsd-42657,icsd-42656","{'materials': True, 'thermo': True, 'xas': True, 'grain_boundaries': False, 'chemenv': True, 'electronic_structure': True, 'absorption': False, 'bandstructure': True, 'dos': True, 'magnetism': True, 'elasticity': False, 'dielectric': False, 'piezoelectric': False, 'surface_properties': False, 'oxi_states': True, 'provenance': True, 'charge_density': True, 'eos': False, 'phonon': False, 'insertion_electrodes': False, 'substrates': True}",,,,,,
mp-bewbk,Cr(MoS2)2,-0.95958100642857,0.071232990714285,False,0.0,16.0001022,28,5.274518451933432,468.6278285106001,-7.801572226428571,,True,C2/c,15,Monoclinic,2/m,FM,,"{'materials': True, 'thermo': True, 'xas': True, 'grain_boundaries': False, 'chemenv': True, 'electronic_structure': True, 'absorption': False, 'bandstructure': True, 'dos': True, 'magnetism': True, 'elasticity': False, 'dielectric': False, 'piezoelectric': False, 'surface_properties': False, 'oxi_states': True, 'provenance': True, 'charge_density': True, 'eos': False, 'phonon': False, 'insertion_electrodes': False, 'substrates': True}",,,,,,
mp-crueh,Cr3Rh3S8,-0.8195924557142851,0.049391985675465,False,0.0,9.1364838,14,5.193271149968531,230.6103266354634,-6.830395864285714,,True,P-1,2,Triclinic,-1,FM,,"{'materials': True, 'thermo': True, 'xas': False, 'grain_boundaries': False, 'chemenv': True, 'electronic_structure': True, 'absorption': False, 'bandstructure': False, 'dos': True, 'magnetism': True, 'elasticity': False, 'dielectric': False, 'piezoelectric': False, 'surface_properties': False, 'oxi_states': True, 'provenance': True, 'charge_density': True, 'eos': False, 'phonon': False, 'insertion_electrodes': False, 'substrates': False}",,,,,,
mp-csmpj,Cr2AgS4,-0.783632478809523,0.049790972857142006,False,0.0,4.9996675,7,4.289416699923788,131.66900095242633,-6.3120072600000015,,True,P2/m,10,Monoclinic,2/m,FM,,"{'materials': True, 'thermo': True, 'xas': False, 'grain_boundaries': False, 'chemenv': True, 'electronic_structure': True, 'absorption': False, 'bandstructure': True, 'dos': True, 'magnetism': True, 'elasticity': False, 'dielectric': False, 'piezoelectric': False, 'surface_properties': False, 'oxi_states': True, 'provenance': True, 'charge_density': True, 'eos': False, 'phonon': False, 'insertion_electrodes': False, 'substrates': False}",,,,,,
mp-bmncx,Cr5AgS8,-0.905970127976189,0.011941100297624001,False,0.0,30.0000296,28,3.951055022973299,524.8160869863249,-6.9207813228571435,,True,P2_1/m,11,Monoclinic,2/m,FM,,"{'materials': True, 'thermo': True, 'xas': True, 'grain_boundaries': False, 'chemenv': True, 'electronic_structure': True, 'absorption': False, 'bandstructure': True, 'dos': True, 'magnetism': True, 'elasticity': False, 'dielectric': False, 'piezoelectric': False, 'surface_properties': False, 'oxi_states': True, 'provenance': True, 'charge_density': True, 'eos': False, 'phonon': False, 'insertion_electrodes': False, 'substrates': True}",,,,,,
mp-cscwy,Cr2AgS4,-0.796637941666665,0.036785509999999,False,0.0,5.0010368,7,4.3563189237888285,129.64689257792196,-6.325012722857143,,True,C2/m,12,Monoclinic,2/m,FM,,"{'materials': True, 'thermo': True, 'xas': False, 'grain_boundaries': False, 'chemenv': True, 'electronic_structure': True, 'absorption': False, 'bandstructure': True, 'dos': True, 'magnetism': True, 'elasticity': False, 'dielectric': False, 'piezoelectric': False, 'surface_properties': False, 'oxi_states': True, 'provenance': True, 'charge_density': True, 'eos': False, 'phonon': False, 'insertion_electrodes': False, 'substrates': False}",,,,,,
mp-ciptk,CrAgS2,-0.5291175691666651,0.200127951041666,False,0.0,2.9886863,4,5.084103264003739,73.15966386426388,-5.7218127125,,True,R3m,160,Trigonal,3m,FM,icsd-25628,"{'materials': True, 'thermo': True, 'xas': False, 'grain_boundaries': False, 'chemenv': True, 'electronic_structure': True, 'absorption': False, 'bandstructure': True, 'dos': True, 'magnetism': True, 'elasticity': False, 'dielectric': False, 'piezoelectric': False, 'surface_properties': False, 'oxi_states': True, 'provenance': True, 'charge_density': True, 'eos': False, 'phonon': False, 'insertion_electrodes': False, 'substrates': False}",,,,,,
mp-gew,CrAgS2,-0.7243781191666641,0.004867401041667,False,0.728699999999999,3.0,4,5.08213777614067,73.18795794792025,-5.9170732625,22.017900896891806,True,R3m,160,Trigonal,3m,FM,"icsd-42395,icsd-24797,icsd-604981,icsd-42396","{'materials': True, 'thermo': True, 'xas': True, 'grain_boundaries': False, 'chemenv': True, 'electronic_structure': True, 'absorption': False, 'bandstructure': True, 'dos': True, 'magnetism': True, 'elasticity': True, 'dielectric': True, 'piezoelectric': True, 'surface_properties': False, 'oxi_states': True, 'provenance': True, 'charge_density': True, 'eos': False, 'phonon': False, 'insertion_electrodes': False, 'substrates': True}",,,,,,
mp-bfxkm,CrAgS2,-0.596659049166665,0.13258647104166602,False,0.0,0.0015344999999990002,4,5.186973696933408,71.70872797477683,-5.7893541925,,False,R3m,160,Trigonal,3m,NM,icsd-25628,"{'materials': True, 'thermo': True, 'xas': False, 'grain_boundaries': False, 'chemenv': True, 'electronic_structure': True, 'absorption': False, 'bandstructure': True, 'dos': True, 'magnetism': True, 'elasticity': True, 'dielectric': False, 'piezoelectric': False, 'surface_properties': False, 'oxi_states': True, 'provenance': True, 'charge_density': True, 'eos': False, 'phonon': False, 'insertion_electrodes': False, 'substrates': True}",,,,,,
mp-csmpc,Cr2AgS4,-0.6529785009523801,0.180444950714285,False,0.0,20.0011564,28,3.784729538146866,596.9073413094198,-6.181353282142857,,True,P-1,2,Triclinic,-1,FM,,"{'materials': True, 'thermo': True, 'xas': False, 'grain_boundaries': False, 'chemenv': True, 'electronic_structure': True, 'absorption': False, 'bandstructure': False, 'dos': False, 'magnetism': True, 'elasticity': False, 'dielectric': False, 'piezoelectric': False, 'surface_properties': False, 'oxi_states': True, 'provenance': True, 'charge_density': True, 'eos': False, 'phonon': False, 'insertion_electrodes': False, 'substrates': False}",,,,,,
mp-csmpf,Cr2AgS4,-0.8334234516666661,0.0,True,0.0,10.3177523,14,4.335458828554847,260.54137930119833,-6.361798232857143,,True,Fd-3m,227,Cubic,m-3m,FM,,"{'materials': True, 'thermo': True, 'xas': False, 'grain_boundaries': False, 'chemenv': True, 'electronic_structure': True, 'absorption': False, 'bandstructure': False, 'dos': True, 'magnetism': True, 'elasticity': False, 'dielectric': False, 'piezoelectric': False, 'surface_properties': False, 'oxi_states': True, 'provenance': True, 'charge_density': True, 'eos': False, 'phonon': False, 'insertion_electrodes': False, 'substrates': False}",,,,,,
mp-csncn,Cr2AgS4,-0.766871002738094,0.06655244892857101,False,0.0,19.9997579,28,4.221028039186477,535.209154077517,-6.295245783928571,,True,Pmmn,59,Orthorhombic,mmm,FM,,"{'materials': True, 'thermo': True, 'xas': False, 'grain_boundaries': False, 'chemenv': True, 'electronic_structure': True, 'absorption': False, 'bandstructure': False, 'dos': False, 'magnetism': True, 'elasticity': False, 'dielectric': False, 'piezoelectric': False, 'surface_properties': False, 'oxi_states': True, 'provenance': True, 'charge_density': True, 'eos': False, 'phonon': False, 'insertion_electrodes': False, 'substrates': False}",,,,,,
mp-csdnt,CrAgS2,-0.726635320416664,0.0026101997916670003,False,0.967299999999999,0.0,16,5.063822870221421,293.8106607425282,-5.91933046375,,True,Pm,6,Monoclinic,m,AFM,,"{'materials': True, 'thermo': True, 'xas': False, 'grain_boundaries': False, 'chemenv': True, 'electronic_structure': True, 'absorption': False, 'bandstructure': False, 'dos': False, 'magnetism': True, 'elasticity': False, 'dielectric': False, 'piezoelectric': False, 'surface_properties': False, 'oxi_states': True, 'provenance': True, 'charge_density': False, 'eos': False, 'phonon': False, 'insertion_electrodes': False, 'substrates': False}",,,,,,
mp-csczy,Cr2AgS4,-0.7190946930952371,0.114328758571428,False,0.0,19.9995649,28,4.650310368189707,485.8025953802992,-6.247469474285714,,True,Pnma,62,Orthorhombic,mmm,FM,,"{'materials': True, 'thermo': True, 'xas': False, 'grain_boundaries': False, 'chemenv': True, 'electronic_structure': True, 'absorption': False, 'bandstructure': False, 'dos': False, 'magnetism': True, 'elasticity': False, 'dielectric': False, 'piezoelectric': False, 'surface_properties': False, 'oxi_states': True, 'provenance': True, 'charge_density': True, 'eos': False, 'phonon': False, 'insertion_electrodes': False, 'substrates': False}",,,,,,