material_id,formula_pretty,formation_energy_per_atom,energy_above_hull,is_stable,band_gap,total_magnetization,nsites,density,volume,energy_per_atom,e_total,is_magnetic,space_group_symbol,space_group_number,crystal_system,point_group,ordering,icsd_ids,has_props,lattice_a,lattice_b,lattice_c,lattice_alpha,lattice_beta,lattice_gamma
mp-cnhvb,BaCuS2,-1.327940898749999,0.060044979999982005,False,0.0,0.0495378,8,4.337599043855023,202.89926745977382,-4.9011851575000005,,False,Cmcm,63,Orthorhombic,mmm,NM,,"{'materials': True, 'thermo': True, 'xas': False, 'grain_boundaries': False, 'chemenv': True, 'electronic_structure': True, 'absorption': False, 'bandstructure': True, 'dos': True, 'magnetism': True, 'elasticity': False, 'dielectric': False, 'piezoelectric': False, 'surface_properties': False, 'oxi_states': True, 'provenance': True, 'charge_density': True, 'eos': False, 'phonon': False, 'insertion_electrodes': False, 'substrates': False}",,,,,,
mp-boou,BaCu4S3,-0.8240477865624981,0.0,True,0.030799999999999002,0.0,16,5.619546983876272,288.22781207768986,-4.66504713125,,False,Cmcm,63,Orthorhombic,mmm,NM,icsd-15139,"{'materials': True, 'thermo': True, 'xas': True, 'grain_boundaries': False, 'chemenv': True, 'electronic_structure': True, 'absorption': False, 'bandstructure': True, 'dos': True, 'magnetism': True, 'elasticity': False, 'dielectric': False, 'piezoelectric': False, 'surface_properties': False, 'oxi_states': True, 'provenance': True, 'charge_density': True, 'eos': False, 'phonon': False, 'insertion_electrodes': False, 'substrates': True}",,,,,,
mp-beege,Ba6Cu34S27,-0.718488040932835,0.0,True,0.0,0.5920384,67,5.377587549511262,1188.9238360180275,-4.6378404985074635,,False,P1,1,Triclinic,1,NM,,"{'materials': True, 'thermo': True, 'xas': True, 'grain_boundaries': False, 'chemenv': True, 'electronic_structure': True, 'absorption': False, 'bandstructure': False, 'dos': False, 'magnetism': True, 'elasticity': False, 'dielectric': False, 'piezoelectric': False, 'surface_properties': False, 'oxi_states': True, 'provenance': True, 'charge_density': True, 'eos': False, 'phonon': False, 'insertion_electrodes': False, 'substrates': True}",,,,,,
mp-cpthf,Ba2ZnS3,-1.9086578179166651,0.0035828012500000003,False,2.0968,0.0,24,4.43928579023044,652.7387389305056,-4.826972255833333,,False,Pnma,62,Orthorhombic,mmm,NM,icsd-262215,"{'materials': True, 'thermo': True, 'xas': False, 'grain_boundaries': False, 'chemenv': True, 'electronic_structure': True, 'absorption': False, 'bandstructure': True, 'dos': True, 'magnetism': True, 'elasticity': False, 'dielectric': False, 'piezoelectric': False, 'surface_properties': False, 'oxi_states': True, 'provenance': True, 'charge_density': True, 'eos': False, 'phonon': False, 'insertion_electrodes': False, 'substrates': False}",,,,,,
mp-igx,Ba2ZnS3,-1.9122406191666652,0.0,True,2.0208,0.0,24,4.433545301995248,653.5838953000139,-4.830555057083333,14.463531743333334,False,Pnma,62,Orthorhombic,mmm,NM,"icsd-25554,icsd-653999","{'materials': True, 'thermo': True, 'xas': True, 'grain_boundaries': False, 'chemenv': True, 'electronic_structure': True, 'absorption': False, 'bandstructure': True, 'dos': True, 'magnetism': True, 'elasticity': False, 'dielectric': True, 'piezoelectric': False, 'surface_properties': False, 'oxi_states': True, 'provenance': True, 'charge_density': False, 'eos': False, 'phonon': False, 'insertion_electrodes': False, 'substrates': True}",,,,,,
mp-fqr,Ba2ZrS4,-2.173588482857141,0.001551584999994,False,0.6025,0.0,7,4.151400482087276,197.6526853605401,-6.307194391428571,62.24722715004072,False,I4/mmm,139,Tetragonal,4/mmm,NM,"icsd-80651,icsd-69853","{'materials': True, 'thermo': True, 'xas': True, 'grain_boundaries': False, 'chemenv': True, 'electronic_structure': True, 'absorption': False, 'bandstructure': True, 'dos': True, 'magnetism': True, 'elasticity': True, 'dielectric': True, 'piezoelectric': False, 'surface_properties': False, 'oxi_states': True, 'provenance': True, 'charge_density': True, 'eos': False, 'phonon': True, 'insertion_electrodes': False, 'substrates': True}",,,,,,
mp-betyx,BaZrS3,-2.107697715499998,0.0,True,0.9900000000000001,0.0,20,4.262395303692848,506.0566946992324,-6.683471456999999,110.36956133666666,False,Pnma,62,Orthorhombic,mmm,NM,"icsd-165977,icsd-23288,icsd-616104","{'materials': True, 'thermo': True, 'xas': True, 'grain_boundaries': False, 'chemenv': True, 'electronic_structure': True, 'absorption': False, 'bandstructure': True, 'dos': True, 'magnetism': True, 'elasticity': True, 'dielectric': True, 'piezoelectric': False, 'surface_properties': False, 'oxi_states': True, 'provenance': True, 'charge_density': True, 'eos': False, 'phonon': False, 'insertion_electrodes': False, 'substrates': True}",,,,,,
mp-mrq,Ba3Zr2S7,-2.149402541875,0.0,True,1.005799999999999,0.0,48,4.184248212763276,1299.9122459952446,-6.4672450475,,False,P4_2/mnm,136,Tetragonal,4/mmm,NM,icsd-59271,"{'materials': True, 'thermo': True, 'xas': True, 'grain_boundaries': False, 'chemenv': True, 'electronic_structure': True, 'absorption': False, 'bandstructure': False, 'dos': False, 'magnetism': True, 'elasticity': False, 'dielectric': False, 'piezoelectric': False, 'surface_properties': False, 'oxi_states': True, 'provenance': True, 'charge_density': True, 'eos': False, 'phonon': False, 'insertion_electrodes': False, 'substrates': True}",,,,,,
mp-npb,Ba3Zr2S7,-2.139658172708332,0.009744369166667,False,0.4979,6e-07,24,4.186091426567166,649.6699352449542,-6.457500678333333,,False,I4/mmm,139,Tetragonal,mmm,NM,icsd-75241,"{'materials': True, 'thermo': True, 'xas': True, 'grain_boundaries': False, 'chemenv': True, 'electronic_structure': True, 'absorption': False, 'bandstructure': True, 'dos': True, 'magnetism': True, 'elasticity': True, 'dielectric': False, 'piezoelectric': False, 'surface_properties': False, 'oxi_states': True, 'provenance': True, 'charge_density': True, 'eos': False, 'phonon': False, 'insertion_electrodes': False, 'substrates': True}",,,,,,
mp-bfnui,Ba3Zr2S7,-2.132344507291666,0.017058034583333,False,0.49149999999999905,0.0008613,24,4.135966856857934,657.5434088689467,-6.450187012916667,,False,Cccm,66,Orthorhombic,mmm,NM,icsd-69854,"{'materials': True, 'thermo': True, 'xas': True, 'grain_boundaries': False, 'chemenv': True, 'electronic_structure': True, 'absorption': False, 'bandstructure': True, 'dos': True, 'magnetism': True, 'elasticity': False, 'dielectric': False, 'piezoelectric': False, 'surface_properties': False, 'oxi_states': True, 'provenance': True, 'charge_density': True, 'eos': False, 'phonon': False, 'insertion_electrodes': False, 'substrates': True}",,,,,,
mp-wal,Ba4Zr3S10,-2.108120482058823,0.029015934411718004,False,0.4167,0.00025,17,4.147297268438284,457.8987638980762,-6.501825115882353,,False,I4/mmm,139,Tetragonal,4/mmm,NM,icsd-72656,"{'materials': True, 'thermo': True, 'xas': True, 'grain_boundaries': False, 'chemenv': True, 'electronic_structure': True, 'absorption': False, 'bandstructure': True, 'dos': True, 'magnetism': True, 'elasticity': False, 'dielectric': False, 'piezoelectric': False, 'surface_properties': False, 'oxi_states': True, 'provenance': True, 'charge_density': True, 'eos': False, 'phonon': False, 'insertion_electrodes': False, 'substrates': True}",,,,,,
mp-bzzr,BaNbS3,-1.746531285499999,0.0030931841538460003,False,0.0,3e-06,10,4.514803365910806,240.11990490203718,-6.633025909,,False,P6_3/mmc,194,Hexagonal,6/mmm,NM,icsd-659538,"{'materials': True, 'thermo': True, 'xas': True, 'grain_boundaries': False, 'chemenv': True, 'electronic_structure': True, 'absorption': False, 'bandstructure': True, 'dos': True, 'magnetism': True, 'elasticity': True, 'dielectric': False, 'piezoelectric': False, 'surface_properties': False, 'oxi_states': True, 'provenance': True, 'charge_density': True, 'eos': False, 'phonon': False, 'insertion_electrodes': False, 'substrates': True}",,,,,,
mp-bnatk,Ba6Nb5S17,-1.742880654553569,0.018042720487637002,False,0.0,0.856336299999999,28,4.269091534410112,713.2108977713689,-6.469885509999999,,True,P1,1,Triclinic,1,FM,,"{'materials': True, 'thermo': True, 'xas': False, 'grain_boundaries': False, 'chemenv': True, 'electronic_structure': True, 'absorption': False, 'bandstructure': False, 'dos': False, 'magnetism': True, 'elasticity': False, 'dielectric': False, 'piezoelectric': False, 'surface_properties': False, 'oxi_states': True, 'provenance': True, 'charge_density': True, 'eos': False, 'phonon': False, 'insertion_electrodes': False, 'substrates': True}",,,,,,
mp-bmmwi,Ba11(Nb3S14)2,-1.7585988086666662,0.0037894939047620002,False,0.5126000000000001,0.008333799999999001,45,4.145143294983296,1188.117806272781,-6.148903042666667,,False,P1,1,Triclinic,1,NM,,"{'materials': True, 'thermo': True, 'xas': True, 'grain_boundaries': False, 'chemenv': True, 'electronic_structure': True, 'absorption': False, 'bandstructure': False, 'dos': False, 'magnetism': True, 'elasticity': False, 'dielectric': False, 'piezoelectric': False, 'surface_properties': False, 'oxi_states': True, 'provenance': True, 'charge_density': True, 'eos': False, 'phonon': False, 'insertion_electrodes': False, 'substrates': True}",,,,,,
mp-befom,Ba8Nb7S24,-1.7361079874358971,0.0,True,0.0,0.0301178,78,4.345578265087711,1924.76199523002,-6.488889523333333,,False,P2_1/c,14,Monoclinic,2/m,NM,,"{'materials': True, 'thermo': True, 'xas': True, 'grain_boundaries': False, 'chemenv': True, 'electronic_structure': True, 'absorption': False, 'bandstructure': False, 'dos': False, 'magnetism': True, 'elasticity': False, 'dielectric': False, 'piezoelectric': False, 'surface_properties': False, 'oxi_states': True, 'provenance': True, 'charge_density': False, 'eos': False, 'phonon': False, 'insertion_electrodes': False, 'substrates': True}",,,,,,
mp-frn,Ba(Mo3S4)2,-1.162022554000014,0.0023248055833180003,False,0.0,1.885786,15,5.316099567700779,302.8293615571059,-7.834826374000015,,True,R-3,148,Trigonal,-3,FM,"icsd-615980,icsd-615975,icsd-65776,icsd-85489,icsd-62157,icsd-615979","{'materials': True, 'thermo': True, 'xas': True, 'grain_boundaries': False, 'chemenv': True, 'electronic_structure': True, 'absorption': False, 'bandstructure': True, 'dos': True, 'magnetism': True, 'elasticity': False, 'dielectric': False, 'piezoelectric': False, 'surface_properties': False, 'oxi_states': True, 'provenance': True, 'charge_density': True, 'eos': False, 'phonon': False, 'insertion_electrodes': False, 'substrates': True}",,,,,,
mp-behkb,Ba2(Mo2S3)3,-1.311938195441174,0.0,True,0.0,0.003280399999999,68,5.244677194430802,1442.3408736297529,-7.555963486764703,,False,P6_3mc,186,Hexagonal,6mm,NM,,"{'materials': True, 'thermo': True, 'xas': True, 'grain_boundaries': False, 'chemenv': True, 'electronic_structure': True, 'absorption': False, 'bandstructure': False, 'dos': False, 'magnetism': True, 'elasticity': False, 'dielectric': False, 'piezoelectric': False, 'surface_properties': False, 'oxi_states': True, 'provenance': True, 'charge_density': False, 'eos': False, 'phonon': False, 'insertion_electrodes': False, 'substrates': True}",,,,,,
mp-ilw,Ba(Mo3S4)2,-1.163883688000015,0.00046367158331800005,False,0.0,1e-07,15,5.330034271050947,302.03765232890487,-7.836687508000015,,False,P-1,2,Triclinic,-1,NM,"icsd-65775,icsd-85490","{'materials': True, 'thermo': True, 'xas': True, 'grain_boundaries': False, 'chemenv': True, 'electronic_structure': True, 'absorption': False, 'bandstructure': True, 'dos': True, 'magnetism': True, 'elasticity': False, 'dielectric': False, 'piezoelectric': False, 'surface_properties': False, 'oxi_states': True, 'provenance': True, 'charge_density': True, 'eos': False, 'phonon': False, 'insertion_electrodes': False, 'substrates': True}",,,,,,
mp-cscyb,BaPdS2,-1.321141268749999,0.149954113749999,False,0.0,0.0001269,4,5.038883115578216,101.45934614499242,-5.1645543125,,False,P4/mmm,123,Tetragonal,4/mmm,NM,,"{'materials': True, 'thermo': True, 'xas': False, 'grain_boundaries': False, 'chemenv': True, 'electronic_structure': True, 'absorption': False, 'bandstructure': True, 'dos': True, 'magnetism': True, 'elasticity': False, 'dielectric': False, 'piezoelectric': False, 'surface_properties': False, 'oxi_states': True, 'provenance': True, 'charge_density': True, 'eos': False, 'phonon': False, 'insertion_electrodes': False, 'substrates': False}",,,,,,
mp-fyf,BaPdS2,-1.471095382499999,0.0,True,0.3649,0.0,8,4.897990044023699,208.75574740353002,-5.314508426250001,23.436594016683383,False,Cmcm,63,Orthorhombic,mmm,NM,"icsd-202009,icsd-63588","{'materials': True, 'thermo': True, 'xas': True, 'grain_boundaries': False, 'chemenv': True, 'electronic_structure': True, 'absorption': False, 'bandstructure': True, 'dos': True, 'magnetism': True, 'elasticity': True, 'dielectric': True, 'piezoelectric': False, 'surface_properties': False, 'oxi_states': True, 'provenance': True, 'charge_density': True, 'eos': False, 'phonon': True, 'insertion_electrodes': False, 'substrates': True}",,,,,,
mp-bqwd,Ba(PdS2)2,-1.124628872142858,0.0,True,0.7791999999999991,0.0,14,5.022717317257348,316.34140399923814,-5.242961645000002,17.04833398,False,P2_1/m,11,Monoclinic,2/m,NM,icsd-79930,"{'materials': True, 'thermo': True, 'xas': True, 'grain_boundaries': False, 'chemenv': True, 'electronic_structure': True, 'absorption': False, 'bandstructure': True, 'dos': True, 'magnetism': True, 'elasticity': False, 'dielectric': True, 'piezoelectric': False, 'surface_properties': False, 'oxi_states': True, 'provenance': True, 'charge_density': True, 'eos': False, 'phonon': False, 'insertion_electrodes': False, 'substrates': True}",,,,,,
mp-mrz,Ba(AgS)2,-1.063721045666665,0.008285146999997,False,0.8761000000000001,2e-07,5,5.696195130144422,121.6190673247031,-4.239650190000001,19.769424803305185,False,P-3m1,164,Trigonal,-3m,NM,icsd-50183,"{'materials': True, 'thermo': True, 'xas': False, 'grain_boundaries': False, 'chemenv': True, 'electronic_structure': True, 'absorption': True, 'bandstructure': True, 'dos': True, 'magnetism': True, 'elasticity': True, 'dielectric': True, 'piezoelectric': False, 'surface_properties': False, 'oxi_states': True, 'provenance': True, 'charge_density': True, 'eos': False, 'phonon': True, 'insertion_electrodes': False, 'substrates': True}",,,,,,
mp-brxq,BaAg8S5,-0.521217914345237,0.011834407857140001,False,0.8058000000000001,0.0,56,6.559844559479574,1175.1605623747257,-3.760465409285714,,False,P2_1/m,11,Monoclinic,2/m,NM,icsd-50662,"{'materials': True, 'thermo': True, 'xas': True, 'grain_boundaries': False, 'chemenv': True, 'electronic_structure': True, 'absorption': False, 'bandstructure': False, 'dos': False, 'magnetism': True, 'elasticity': False, 'dielectric': False, 'piezoelectric': False, 'surface_properties': False, 'oxi_states': True, 'provenance': True, 'charge_density': True, 'eos': False, 'phonon': False, 'insertion_electrodes': False, 'substrates': True}",,,,,,
mp-crxmk,Ba2Ag8S7,-0.741530335637251,0.0067845270588230006,False,0.9648999999999991,0.0,34,5.883198490119896,768.882735450982,-4.008779470588233,,False,Pmn2_1,31,Orthorhombic,mm2,NM,,"{'materials': True, 'thermo': True, 'xas': False, 'grain_boundaries': False, 'chemenv': True, 'electronic_structure': True, 'absorption': False, 'bandstructure': False, 'dos': False, 'magnetism': True, 'elasticity': False, 'dielectric': False, 'piezoelectric': False, 'surface_properties': False, 'oxi_states': True, 'provenance': True, 'charge_density': True, 'eos': False, 'phonon': False, 'insertion_electrodes': False, 'substrates': False}",,,,,,
mp-bbcf,Ba2CdS3,-1.8496002737500001,0.0,True,2.0892,0.0,24,4.649905842641991,690.3125667328919,-4.717959141666668,,False,Pnma,62,Orthorhombic,mmm,NM,icsd-66654,"{'materials': True, 'thermo': True, 'xas': True, 'grain_boundaries': False, 'chemenv': True, 'electronic_structure': True, 'absorption': False, 'bandstructure': True, 'dos': True, 'magnetism': True, 'elasticity': False, 'dielectric': False, 'piezoelectric': False, 'surface_properties': False, 'oxi_states': True, 'provenance': True, 'charge_density': True, 'eos': False, 'phonon': False, 'insertion_electrodes': False, 'substrates': True}",,,,,,
mp-ndt,BaCdS2,-1.583339704374998,0.020061930000003003,False,1.7377999999999991,0.004641699999999,16,4.634532205928844,449.8318730756585,-4.371784843125,,False,Pnma,62,Orthorhombic,mmm,NM,icsd-66655,"{'materials': True, 'thermo': True, 'xas': True, 'grain_boundaries': False, 'chemenv': True, 'electronic_structure': True, 'absorption': False, 'bandstructure': True, 'dos': True, 'magnetism': True, 'elasticity': False, 'dielectric': False, 'piezoelectric': False, 'surface_properties': False, 'oxi_states': True, 'provenance': True, 'charge_density': True, 'eos': False, 'phonon': False, 'insertion_electrodes': False, 'substrates': True}",,,,,,
mp-nun,Ba2HfS4,-2.208330561428571,0.0,True,0.8648,0.0,7,4.9765721093957715,193.9978029565265,-6.543291955714287,39.07376125068722,False,I4/mmm,139,Tetragonal,4/mmm,NM,icsd-80652,"{'materials': True, 'thermo': True, 'xas': True, 'grain_boundaries': False, 'chemenv': True, 'electronic_structure': True, 'absorption': True, 'bandstructure': True, 'dos': True, 'magnetism': True, 'elasticity': True, 'dielectric': True, 'piezoelectric': False, 'surface_properties': False, 'oxi_states': True, 'provenance': True, 'charge_density': True, 'eos': False, 'phonon': True, 'insertion_electrodes': False, 'substrates': True}",,,,,,
mp-ceuwe,BaHfS3,-2.111422738499999,0.028355060499999002,False,0.8438999999999991,4.93e-05,5,5.436616236620325,125.84335405165709,-6.96909416,,False,R3m,160,Trigonal,3m,NM,,"{'materials': True, 'thermo': True, 'xas': True, 'grain_boundaries': False, 'chemenv': True, 'electronic_structure': True, 'absorption': False, 'bandstructure': False, 'dos': False, 'magnetism': True, 'elasticity': False, 'dielectric': False, 'piezoelectric': False, 'surface_properties': False, 'oxi_states': True, 'provenance': True, 'charge_density': True, 'eos': False, 'phonon': False, 'insertion_electrodes': False, 'substrates': True}",,,,,,
mp-daska,BaHfS3,-2.111515094499999,0.028262704499998,False,0.8329000000000001,3.3900000000000004e-05,5,5.435170255671467,125.8768336086791,-6.969186516000001,,False,Pm-3m,221,Cubic,m-3m,NM,,"{'materials': True, 'thermo': True, 'xas': False, 'grain_boundaries': False, 'chemenv': True, 'electronic_structure': True, 'absorption': False, 'bandstructure': True, 'dos': True, 'magnetism': True, 'elasticity': False, 'dielectric': False, 'piezoelectric': False, 'surface_properties': False, 'oxi_states': True, 'provenance': True, 'charge_density': False, 'eos': False, 'phonon': False, 'insertion_electrodes': False, 'substrates': False}",,,,,,
mp-ckxld,BaHfS3,-2.139777798999998,0.0,True,1.252399999999999,0.0,20,5.547751676715811,493.2895787527485,-6.997449220499999,58.18681615,False,Pnma,62,Orthorhombic,mmm,NM,icsd-615918,"{'materials': True, 'thermo': True, 'xas': False, 'grain_boundaries': False, 'chemenv': True, 'electronic_structure': True, 'absorption': False, 'bandstructure': True, 'dos': True, 'magnetism': True, 'elasticity': False, 'dielectric': True, 'piezoelectric': False, 'surface_properties': False, 'oxi_states': True, 'provenance': True, 'charge_density': True, 'eos': False, 'phonon': False, 'insertion_electrodes': False, 'substrates': False}",,,,,,
mp-ceuyt,BaHfS3,-2.132271587999999,0.007506210999999,False,0.866499999999999,0.0038439,20,5.514654763774347,496.25011988220575,-6.9899430095,,False,Pnma,62,Orthorhombic,mmm,NM,,"{'materials': True, 'thermo': True, 'xas': True, 'grain_boundaries': False, 'chemenv': True, 'electronic_structure': True, 'absorption': False, 'bandstructure': True, 'dos': True, 'magnetism': True, 'elasticity': False, 'dielectric': False, 'piezoelectric': False, 'surface_properties': False, 'oxi_states': True, 'provenance': True, 'charge_density': True, 'eos': False, 'phonon': False, 'insertion_electrodes': False, 'substrates': True}",,,,,,