material_id,formula_pretty,formation_energy_per_atom,energy_above_hull,is_stable,band_gap,total_magnetization,nsites,density,volume,energy_per_atom,e_total,is_magnetic,space_group_symbol,space_group_number,crystal_system,point_group,ordering,icsd_ids,has_props,lattice_a,lattice_b,lattice_c,lattice_alpha,lattice_beta,lattice_gamma
mp-crtqp,Co5NiS8,-0.730139155714285,0.0,True,0.0,0.9871972,14,4.928711438762087,205.47531351428677,-6.054882154285715,,True,F-43m,216,Cubic,-43m,FiM,,"{'materials': True, 'thermo': True, 'xas': False, 'grain_boundaries': False, 'chemenv': True, 'electronic_structure': True, 'absorption': False, 'bandstructure': False, 'dos': True, 'magnetism': True, 'elasticity': False, 'dielectric': False, 'piezoelectric': False, 'surface_properties': False, 'oxi_states': True, 'provenance': True, 'charge_density': True, 'eos': False, 'phonon': False, 'insertion_electrodes': False, 'substrates': False}",,,,,,
mp-bhnm,Co2NiS4,-0.745516640714294,0.0,True,0.0,1.43e-05,14,5.048241624506803,200.53127691456677,-5.9735967792857245,,False,Fd-3m,227,Cubic,m-3m,NM,"icsd-624467,icsd-624468,icsd-24213","{'materials': True, 'thermo': True, 'xas': True, 'grain_boundaries': False, 'chemenv': True, 'electronic_structure': True, 'absorption': False, 'bandstructure': True, 'dos': True, 'magnetism': True, 'elasticity': False, 'dielectric': False, 'piezoelectric': False, 'surface_properties': False, 'oxi_states': True, 'provenance': True, 'charge_density': True, 'eos': False, 'phonon': False, 'insertion_electrodes': True, 'substrates': True}",,,,,,
mp-crujg,Co(NiS2)2,-0.606932114285713,0.10381526357140901,False,0.0,0.0016512999999990002,7,4.902538956164101,103.16429611771214,-5.641686532857143,,False,P2/m,10,Monoclinic,2/m,NM,,"{'materials': True, 'thermo': True, 'xas': False, 'grain_boundaries': False, 'chemenv': True, 'electronic_structure': True, 'absorption': False, 'bandstructure': True, 'dos': True, 'magnetism': True, 'elasticity': False, 'dielectric': False, 'piezoelectric': False, 'surface_properties': False, 'oxi_states': True, 'provenance': True, 'charge_density': True, 'eos': False, 'phonon': False, 'insertion_electrodes': False, 'substrates': False}",,,,,,
mp-bmglf,Co(NiS2)2,-0.6603375671428551,0.05040981071426601,False,0.0,0.0005111,14,4.891649003246524,206.78792786099805,-5.695091985714286,,False,Fd-3m,227,Cubic,m-3m,NM,icsd-624469,"{'materials': True, 'thermo': True, 'xas': True, 'grain_boundaries': False, 'chemenv': True, 'electronic_structure': True, 'absorption': False, 'bandstructure': True, 'dos': True, 'magnetism': True, 'elasticity': False, 'dielectric': False, 'piezoelectric': False, 'surface_properties': False, 'oxi_states': True, 'provenance': True, 'charge_density': True, 'eos': False, 'phonon': False, 'insertion_electrodes': False, 'substrates': True}",,,,,,
mp-bmkic,Co(NiS2)2,-0.597258517142855,0.113488860714266,False,0.0,0.0152518,14,5.027884284906634,201.18481331028661,-5.632012935714286,,False,Fdd2,43,Orthorhombic,mm2,NM,,"{'materials': True, 'thermo': True, 'xas': True, 'grain_boundaries': False, 'chemenv': True, 'electronic_structure': True, 'absorption': False, 'bandstructure': True, 'dos': True, 'magnetism': True, 'elasticity': False, 'dielectric': False, 'piezoelectric': False, 'surface_properties': False, 'oxi_states': True, 'provenance': True, 'charge_density': True, 'eos': False, 'phonon': False, 'insertion_electrodes': False, 'substrates': True}",,,,,,
mp-bmjot,Co(NiS2)2,-0.710747377857131,0.0,True,0.0,0.000248499999999,14,4.966232140874286,203.6823757953829,-5.745501796428562,,False,Imma,74,Orthorhombic,mmm,NM,,"{'materials': True, 'thermo': True, 'xas': True, 'grain_boundaries': False, 'chemenv': True, 'electronic_structure': True, 'absorption': False, 'bandstructure': True, 'dos': True, 'magnetism': True, 'elasticity': False, 'dielectric': False, 'piezoelectric': False, 'surface_properties': False, 'oxi_states': True, 'provenance': True, 'charge_density': True, 'eos': False, 'phonon': False, 'insertion_electrodes': True, 'substrates': True}",,,,,,
mp-cruht,Co3Ni3S8,-0.6805360407142851,0.047595968571429004,False,0.0,0.0044335,14,4.944542583272596,204.65637278431183,-5.811953319285714,,False,R-3m,166,Trigonal,-3m,NM,,"{'materials': True, 'thermo': True, 'xas': False, 'grain_boundaries': False, 'chemenv': True, 'electronic_structure': True, 'absorption': False, 'bandstructure': False, 'dos': True, 'magnetism': True, 'elasticity': False, 'dielectric': False, 'piezoelectric': False, 'surface_properties': False, 'oxi_states': True, 'provenance': True, 'charge_density': True, 'eos': False, 'phonon': False, 'insertion_electrodes': False, 'substrates': False}",,,,,,
mp-crtsj,CoNi5S8,-0.658122071428571,0.026512306785704,False,0.0,0.0052235,14,4.834765929445955,209.13851611324273,-5.59621363,,False,F-43m,216,Cubic,-43m,NM,,"{'materials': True, 'thermo': True, 'xas': False, 'grain_boundaries': False, 'chemenv': True, 'electronic_structure': True, 'absorption': False, 'bandstructure': False, 'dos': True, 'magnetism': True, 'elasticity': False, 'dielectric': False, 'piezoelectric': False, 'surface_properties': False, 'oxi_states': True, 'provenance': True, 'charge_density': True, 'eos': False, 'phonon': False, 'insertion_electrodes': False, 'substrates': False}",,,,,,
mp-cruip,Co3(Ni3S4)2,-0.639684086470588,0.011935684621853002,False,0.0,0.176412899999999,17,5.335708237933371,244.45118491525164,-5.885581259411765,,True,Imm2,44,Orthorhombic,mm2,FM,,"{'materials': True, 'thermo': True, 'xas': False, 'grain_boundaries': False, 'chemenv': True, 'electronic_structure': True, 'absorption': False, 'bandstructure': False, 'dos': False, 'magnetism': True, 'elasticity': False, 'dielectric': False, 'piezoelectric': False, 'surface_properties': False, 'oxi_states': True, 'provenance': True, 'charge_density': True, 'eos': False, 'phonon': False, 'insertion_electrodes': False, 'substrates': False}",,,,,,
mp-crtso,CoCuS4,-0.30687424437500005,0.033098305407987,False,0.0,0.8993451,12,4.637457224859508,179.56488163098865,-9.676403584166666,,True,P2_1/c,14,Monoclinic,2/m,FiM,,"{'materials': True, 'thermo': True, 'xas': False, 'grain_boundaries': False, 'chemenv': True, 'electronic_structure': True, 'absorption': False, 'bandstructure': False, 'dos': True, 'magnetism': True, 'elasticity': False, 'dielectric': False, 'piezoelectric': False, 'surface_properties': False, 'oxi_states': True, 'provenance': True, 'charge_density': True, 'eos': False, 'phonon': False, 'insertion_electrodes': False, 'substrates': False}",,,,,,
mp-crtsa,Co5CuS8,-0.503141700892854,0.004674237857143,False,0.0,0.231184299999999,14,4.937005072627028,206.76228704632544,-10.595302377142856,,True,F-43m,216,Cubic,-43m,FM,,"{'materials': True, 'thermo': True, 'xas': False, 'grain_boundaries': False, 'chemenv': True, 'electronic_structure': True, 'absorption': False, 'bandstructure': False, 'dos': True, 'magnetism': True, 'elasticity': False, 'dielectric': False, 'piezoelectric': False, 'surface_properties': False, 'oxi_states': True, 'provenance': True, 'charge_density': True, 'eos': False, 'phonon': False, 'insertion_electrodes': False, 'substrates': False}",,,,,,
mp-fuz,Co2CuS4,-0.5034428230357141,0.0,True,0.0,0.0002515,14,4.91939664345373,209.05941875074078,-10.425072418571428,,False,Fd-3m,227,Cubic,m-3m,NM,"icsd-622571,icsd-31107,icsd-52943","{'materials': True, 'thermo': True, 'xas': True, 'grain_boundaries': False, 'chemenv': True, 'electronic_structure': True, 'absorption': False, 'bandstructure': True, 'dos': True, 'magnetism': True, 'elasticity': False, 'dielectric': False, 'piezoelectric': False, 'surface_properties': False, 'oxi_states': True, 'provenance': True, 'charge_density': True, 'eos': False, 'phonon': False, 'insertion_electrodes': False, 'substrates': True}",,,,,,
mp-dbtno,Zn(CoS2)4,-0.40837801524725503,0.14001883890108602,False,0.0,0.052218999999999,13,4.292791011633139,215.71494375809408,-10.10990301082418,,False,R-3m,166,Trigonal,-3m,NM,,"{'materials': True, 'thermo': True, 'xas': False, 'grain_boundaries': False, 'chemenv': True, 'electronic_structure': True, 'absorption': False, 'bandstructure': False, 'dos': True, 'magnetism': True, 'elasticity': False, 'dielectric': False, 'piezoelectric': False, 'surface_properties': False, 'oxi_states': True, 'provenance': True, 'charge_density': True, 'eos': False, 'phonon': False, 'insertion_electrodes': True, 'substrates': True}",,,,,,
mp-dbxwy,Zn(CoS2)4,-0.41514415986263903,0.13325269428570302,False,0.0,1.0597754,13,4.139249713925323,223.71667225689896,-10.116669155439563,,True,R-3m,166,Trigonal,-3m,FM,,"{'materials': True, 'thermo': True, 'xas': False, 'grain_boundaries': False, 'chemenv': True, 'electronic_structure': True, 'absorption': False, 'bandstructure': False, 'dos': True, 'magnetism': True, 'elasticity': False, 'dielectric': False, 'piezoelectric': False, 'surface_properties': False, 'oxi_states': True, 'provenance': True, 'charge_density': True, 'eos': False, 'phonon': False, 'insertion_electrodes': True, 'substrates': True}",,,,,,
mp-dbrpu,Zn(CoS2)2,-0.6098689538520431,0.018742265102041,False,0.7452000000000001,0.0001615,14,4.641954108247418,222.88746233158312,-10.254899492959185,,False,Fd-3m,227,Cubic,m-3m,NM,,"{'materials': True, 'thermo': True, 'xas': True, 'grain_boundaries': False, 'chemenv': True, 'electronic_structure': True, 'absorption': False, 'bandstructure': False, 'dos': True, 'magnetism': True, 'elasticity': False, 'dielectric': False, 'piezoelectric': False, 'surface_properties': False, 'oxi_states': True, 'provenance': True, 'charge_density': True, 'eos': False, 'phonon': False, 'insertion_electrodes': True, 'substrates': True}",,,,,,
mp-cxibj,ZnCo2S5,-0.35421415809709805,0.22757050071428603,False,0.0,0.00044449999999900006,16,3.892555934302829,293.15538711516837,-9.797870533214285,,False,Pmmn,59,Orthorhombic,mmm,NM,,"{'materials': True, 'thermo': True, 'xas': True, 'grain_boundaries': False, 'chemenv': True, 'electronic_structure': True, 'absorption': False, 'bandstructure': False, 'dos': False, 'magnetism': True, 'elasticity': False, 'dielectric': False, 'piezoelectric': False, 'surface_properties': False, 'oxi_states': True, 'provenance': True, 'charge_density': True, 'eos': False, 'phonon': False, 'insertion_electrodes': False, 'substrates': True}",,,,,,
mp-chmmx,Zn(CoS2)2,-0.44039669385204305,0.18821452510204,False,0.0,1.45e-05,14,4.566734705914154,226.55867662008723,-10.085427232959185,,False,Imma,74,Orthorhombic,mmm,NM,,"{'materials': True, 'thermo': True, 'xas': True, 'grain_boundaries': False, 'chemenv': True, 'electronic_structure': True, 'absorption': False, 'bandstructure': True, 'dos': True, 'magnetism': True, 'elasticity': False, 'dielectric': False, 'piezoelectric': False, 'surface_properties': False, 'oxi_states': True, 'provenance': True, 'charge_density': True, 'eos': False, 'phonon': False, 'insertion_electrodes': True, 'substrates': True}",,,,,,
mp-creau,Zn2CoS3,-0.664724843380452,0.130550561974205,False,0.0,2.287192,6,4.151264279311818,114.38077554094828,-9.85764951364087,,True,P3m1,156,Trigonal,3m,FM,,"{'materials': True, 'thermo': True, 'xas': False, 'grain_boundaries': False, 'chemenv': True, 'electronic_structure': True, 'absorption': False, 'bandstructure': False, 'dos': False, 'magnetism': True, 'elasticity': False, 'dielectric': False, 'piezoelectric': False, 'surface_properties': False, 'oxi_states': True, 'provenance': True, 'charge_density': True, 'eos': False, 'phonon': False, 'insertion_electrodes': False, 'substrates': False}",,,,,,
mp-creca,Zn3CoS4,-0.7338039442261921,0.103327197194939,False,0.0,2.9953734,8,4.037213153500407,157.70388842829914,-9.746577425944942,,True,P-4m2,115,Tetragonal,-42m,FM,,"{'materials': True, 'thermo': True, 'xas': False, 'grain_boundaries': False, 'chemenv': True, 'electronic_structure': True, 'absorption': False, 'bandstructure': True, 'dos': True, 'magnetism': True, 'elasticity': False, 'dielectric': False, 'piezoelectric': False, 'surface_properties': False, 'oxi_states': True, 'provenance': True, 'charge_density': True, 'eos': False, 'phonon': False, 'insertion_electrodes': False, 'substrates': False}",,,,,,
mp-creev,Zr2CoS4,-1.5726560642857121,0.011608522857141,False,0.0,0.9960494,7,4.536701953350222,135.29732639124165,-7.398143039999999,,True,Cm,8,Monoclinic,m,FM,,"{'materials': True, 'thermo': True, 'xas': False, 'grain_boundaries': False, 'chemenv': True, 'electronic_structure': True, 'absorption': False, 'bandstructure': True, 'dos': True, 'magnetism': True, 'elasticity': False, 'dielectric': False, 'piezoelectric': False, 'surface_properties': False, 'oxi_states': True, 'provenance': True, 'charge_density': True, 'eos': False, 'phonon': False, 'insertion_electrodes': False, 'substrates': False}",,,,,,
mp-cgiuo,Nb2CoS4,-0.8174152228571431,0.410950490952377,False,0.0,0.009947,7,4.945829354703499,125.23500426938482,-7.086789172857143,,False,P-3m1,164,Trigonal,-3m,NM,,"{'materials': True, 'thermo': True, 'xas': False, 'grain_boundaries': False, 'chemenv': True, 'electronic_structure': True, 'absorption': False, 'bandstructure': True, 'dos': True, 'magnetism': True, 'elasticity': False, 'dielectric': False, 'piezoelectric': False, 'surface_properties': False, 'oxi_states': True, 'provenance': True, 'charge_density': True, 'eos': False, 'phonon': False, 'insertion_electrodes': False, 'substrates': True}",,,,,,
mp-cpwvm,Nb2CoS4,-0.9565583835714281,0.271807330238091,False,0.0,8.0046556,28,4.853266150841991,510.4941217736297,-7.225932333571428,,True,Pnma,62,Orthorhombic,mmm,FM,,"{'materials': True, 'thermo': True, 'xas': False, 'grain_boundaries': False, 'chemenv': True, 'electronic_structure': True, 'absorption': False, 'bandstructure': False, 'dos': False, 'magnetism': True, 'elasticity': False, 'dielectric': False, 'piezoelectric': False, 'surface_properties': False, 'oxi_states': True, 'provenance': True, 'charge_density': True, 'eos': False, 'phonon': False, 'insertion_electrodes': False, 'substrates': False}",,,,,,
mp-cqwnh,Nb2CoS4,-0.899807083214285,0.32855863059523405,False,0.0,4.4290031,28,5.580483978176862,443.96934945007825,-7.1691810332142865,,True,Pnma,62,Orthorhombic,mmm,FM,,"{'materials': True, 'thermo': True, 'xas': False, 'grain_boundaries': False, 'chemenv': True, 'electronic_structure': True, 'absorption': False, 'bandstructure': False, 'dos': False, 'magnetism': True, 'elasticity': False, 'dielectric': False, 'piezoelectric': False, 'surface_properties': False, 'oxi_states': True, 'provenance': True, 'charge_density': True, 'eos': False, 'phonon': False, 'insertion_electrodes': False, 'substrates': False}",,,,,,
mp-kns,Nb3CoS6,-1.2897839994999991,0.0,True,0.0,4.6784806,20,4.992891245105044,352.56365941568475,-7.515955810999999,,True,P6_322,182,Hexagonal,622,FM,icsd-53016,"{'materials': True, 'thermo': True, 'xas': False, 'grain_boundaries': False, 'chemenv': True, 'electronic_structure': True, 'absorption': False, 'bandstructure': True, 'dos': True, 'magnetism': True, 'elasticity': False, 'dielectric': False, 'piezoelectric': False, 'surface_properties': False, 'oxi_states': True, 'provenance': True, 'charge_density': True, 'eos': False, 'phonon': False, 'insertion_electrodes': False, 'substrates': True}",,,,,,
mp-ckgmu,Nb4CoS8,-1.313454820384617,0.0,True,0.0,4.3447775,26,4.866505272959327,468.88721334643986,-7.51636394192308,,True,P6_3/mmc,194,Hexagonal,6/mmm,FM,icsd-624300,"{'materials': True, 'thermo': True, 'xas': False, 'grain_boundaries': False, 'chemenv': True, 'electronic_structure': True, 'absorption': False, 'bandstructure': True, 'dos': True, 'magnetism': True, 'elasticity': False, 'dielectric': False, 'piezoelectric': False, 'surface_properties': False, 'oxi_states': True, 'provenance': True, 'charge_density': True, 'eos': False, 'phonon': False, 'insertion_electrodes': False, 'substrates': False}",,,,,,
mp-cgfmy,Co2MoS4,-0.332321478869047,0.344842192976187,False,0.0,0.0003943,7,4.326122539913492,131.29877823044507,-12.428977280119048,,False,I-4,82,Tetragonal,-4,NM,,"{'materials': True, 'thermo': True, 'xas': False, 'grain_boundaries': False, 'chemenv': True, 'electronic_structure': True, 'absorption': False, 'bandstructure': True, 'dos': True, 'magnetism': True, 'elasticity': False, 'dielectric': False, 'piezoelectric': False, 'surface_properties': False, 'oxi_states': True, 'provenance': True, 'charge_density': True, 'eos': False, 'phonon': False, 'insertion_electrodes': False, 'substrates': True}",,,,,,
mp-lst,Co(MoS2)2,-0.6924832823214291,0.13563889928571202,False,0.0,0.005266499999999,7,5.875659806679103,107.13109167464734,-14.623103127857144,,False,C2/m,12,Monoclinic,2/m,NM,icsd-26173,"{'materials': True, 'thermo': True, 'xas': True, 'grain_boundaries': False, 'chemenv': True, 'electronic_structure': True, 'absorption': False, 'bandstructure': True, 'dos': True, 'magnetism': True, 'elasticity': False, 'dielectric': False, 'piezoelectric': False, 'surface_properties': False, 'oxi_states': True, 'provenance': True, 'charge_density': True, 'eos': False, 'phonon': False, 'insertion_electrodes': False, 'substrates': True}",,,,,,
mp-cpwlx,Co(MoS2)2,-0.690308627678571,0.13781355392857,False,0.0,0.4648983,28,5.870266065779852,428.91810513856603,-14.620928473214287,,True,C2/c,15,Monoclinic,2/m,FM,,"{'materials': True, 'thermo': True, 'xas': True, 'grain_boundaries': False, 'chemenv': True, 'electronic_structure': True, 'absorption': False, 'bandstructure': False, 'dos': False, 'magnetism': True, 'elasticity': False, 'dielectric': False, 'piezoelectric': False, 'surface_properties': False, 'oxi_states': True, 'provenance': True, 'charge_density': True, 'eos': False, 'phonon': False, 'insertion_electrodes': False, 'substrates': False}",,,,,,
mp-cpxrp,Co(MoS2)2,-0.683592044464286,0.144530137142854,False,0.0,4.4984555,28,5.703162828353699,441.4854482280907,-14.614211890000002,,True,Cc,9,Monoclinic,m,FM,"icsd-2018,icsd-94750,icsd-624227,icsd-94752","{'materials': True, 'thermo': True, 'xas': True, 'grain_boundaries': False, 'chemenv': True, 'electronic_structure': True, 'absorption': False, 'bandstructure': False, 'dos': False, 'magnetism': True, 'elasticity': False, 'dielectric': False, 'piezoelectric': False, 'surface_properties': False, 'oxi_states': True, 'provenance': True, 'charge_density': True, 'eos': False, 'phonon': False, 'insertion_electrodes': False, 'substrates': False}",,,,,,
mp-crtrk,CoRuS4,-0.7666177608333331,0.017415504583333002,False,0.0,2.0011253,12,5.466462434465299,175.13055380842655,-6.259519445833334,,True,P2_1/c,14,Monoclinic,2/m,FM,,"{'materials': True, 'thermo': True, 'xas': False, 'grain_boundaries': False, 'chemenv': True, 'electronic_structure': True, 'absorption': False, 'bandstructure': False, 'dos': True, 'magnetism': True, 'elasticity': False, 'dielectric': False, 'piezoelectric': False, 'surface_properties': False, 'oxi_states': True, 'provenance': True, 'charge_density': True, 'eos': False, 'phonon': False, 'insertion_electrodes': False, 'substrates': False}",,,,,,
mp-cpgfs,Co8RuS8,-0.7176172417647051,0.0,True,0.0,0.1129917,17,5.744073135891889,239.66950162242,-6.567083006470589,,False,Fm-3m,225,Cubic,m-3m,NM,icsd-624822,"{'materials': True, 'thermo': True, 'xas': False, 'grain_boundaries': False, 'chemenv': True, 'electronic_structure': True, 'absorption': False, 'bandstructure': False, 'dos': False, 'magnetism': True, 'elasticity': False, 'dielectric': False, 'piezoelectric': False, 'surface_properties': False, 'oxi_states': True, 'provenance': True, 'charge_density': True, 'eos': False, 'phonon': False, 'insertion_electrodes': False, 'substrates': False}",,,,,,