material_id,formula_pretty,formation_energy_per_atom,energy_above_hull,is_stable,band_gap,total_magnetization,nsites,density,volume,energy_per_atom,e_total,is_magnetic,space_group_symbol,space_group_number,crystal_system,point_group,ordering,icsd_ids,has_props,lattice_a,lattice_b,lattice_c,lattice_alpha,lattice_beta,lattice_gamma
mp-frc,Ta9(NiS3)2,-0.9168304130000001,0.0,True,0.0,1.2e-06,17,10.6536386299043,302.11609422510384,-9.339595561176472,,False,P-62m,189,Hexagonal,-6m2,NM,"icsd-61416,icsd-63591","{'materials': True, 'thermo': True, 'xas': True, 'grain_boundaries': False, 'chemenv': True, 'electronic_structure': True, 'absorption': False, 'bandstructure': True, 'dos': True, 'magnetism': True, 'elasticity': False, 'dielectric': False, 'piezoelectric': False, 'surface_properties': False, 'oxi_states': True, 'provenance': True, 'charge_density': True, 'eos': False, 'phonon': False, 'insertion_electrodes': False, 'substrates': True}",,,,,,
mp-utl,Zr2CuS4,-1.5954547421428562,0.0,True,0.0,4.7e-06,14,4.41838446166646,281.307972732152,-6.987483139285715,,False,Fd-3m,227,Cubic,m-3m,NM,icsd-27027,"{'materials': True, 'thermo': True, 'xas': True, 'grain_boundaries': False, 'chemenv': True, 'electronic_structure': True, 'absorption': False, 'bandstructure': True, 'dos': True, 'magnetism': True, 'elasticity': False, 'dielectric': False, 'piezoelectric': False, 'surface_properties': False, 'oxi_states': True, 'provenance': True, 'charge_density': True, 'eos': False, 'phonon': False, 'insertion_electrodes': True, 'substrates': True}",,,,,,
mp-crdxa,Zr4CuS8,-1.714396173846152,0.0,True,0.0,1e-07,13,4.02370091823183,282.67661619251,-7.205872396153845,,False,F-43m,216,Cubic,-43m,NM,,"{'materials': True, 'thermo': True, 'xas': False, 'grain_boundaries': False, 'chemenv': True, 'electronic_structure': True, 'absorption': False, 'bandstructure': False, 'dos': True, 'magnetism': True, 'elasticity': False, 'dielectric': False, 'piezoelectric': False, 'surface_properties': False, 'oxi_states': True, 'provenance': True, 'charge_density': True, 'eos': False, 'phonon': False, 'insertion_electrodes': False, 'substrates': False}",,,,,,
mp-iif,NbCu3S4,-0.847748116249999,0.0,True,1.6574,0.0,8,4.1524118433614134,164.67953723815498,-5.71631260375,6.718374793333329,False,P-43m,215,Cubic,-43m,NM,"icsd-628466,icsd-628471,icsd-170784,icsd-108392,icsd-628472,icsd-183994","{'materials': True, 'thermo': True, 'xas': False, 'grain_boundaries': False, 'chemenv': True, 'electronic_structure': True, 'absorption': True, 'bandstructure': True, 'dos': True, 'magnetism': True, 'elasticity': True, 'dielectric': True, 'piezoelectric': True, 'surface_properties': False, 'oxi_states': True, 'provenance': True, 'charge_density': True, 'eos': False, 'phonon': True, 'insertion_electrodes': True, 'substrates': True}",,,,,,
mp-crltr,Nb2CuS4,-1.201959642857142,0.00227348816327,False,0.0,8.5e-06,7,4.914267637370284,127.5979961882165,-7.037875014285714,,False,P3m1,156,Trigonal,3m,NM,,"{'materials': True, 'thermo': True, 'xas': False, 'grain_boundaries': False, 'chemenv': True, 'electronic_structure': True, 'absorption': False, 'bandstructure': True, 'dos': True, 'magnetism': True, 'elasticity': False, 'dielectric': False, 'piezoelectric': False, 'surface_properties': False, 'oxi_states': True, 'provenance': True, 'charge_density': True, 'eos': False, 'phonon': False, 'insertion_electrodes': False, 'substrates': False}",,,,,,
mp-cgisv,Nb2CuS4,-0.755203854285714,0.44902927673469806,False,0.0,0.0011166,7,4.369782098053338,143.49701865921176,-6.591119225714286,,False,P-3m1,164,Trigonal,-3m,NM,,"{'materials': True, 'thermo': True, 'xas': False, 'grain_boundaries': False, 'chemenv': True, 'electronic_structure': True, 'absorption': False, 'bandstructure': True, 'dos': True, 'magnetism': True, 'elasticity': False, 'dielectric': False, 'piezoelectric': False, 'surface_properties': False, 'oxi_states': True, 'provenance': True, 'charge_density': True, 'eos': False, 'phonon': False, 'insertion_electrodes': False, 'substrates': True}",,,,,,
mp-cpxiw,Nb2CuS4,-0.9858095660714281,0.21842356494898402,False,0.0,0.0080022,28,4.928632853468528,508.9043732034225,-6.8217249375,,False,Pnma,62,Orthorhombic,mmm,NM,,"{'materials': True, 'thermo': True, 'xas': False, 'grain_boundaries': False, 'chemenv': True, 'electronic_structure': True, 'absorption': False, 'bandstructure': False, 'dos': False, 'magnetism': True, 'elasticity': False, 'dielectric': False, 'piezoelectric': False, 'surface_properties': False, 'oxi_states': True, 'provenance': True, 'charge_density': True, 'eos': False, 'phonon': False, 'insertion_electrodes': False, 'substrates': False}",,,,,,
mp-cqwty,Nb2CuS4,-0.939789078214285,0.26444405280612704,False,0.0,0.0033398,28,4.866809285268724,515.3690366779402,-6.775704449642857,,False,Pnma,62,Orthorhombic,mmm,NM,,"{'materials': True, 'thermo': True, 'xas': False, 'grain_boundaries': False, 'chemenv': True, 'electronic_structure': True, 'absorption': False, 'bandstructure': False, 'dos': False, 'magnetism': True, 'elasticity': False, 'dielectric': False, 'piezoelectric': False, 'surface_properties': False, 'oxi_states': True, 'provenance': True, 'charge_density': True, 'eos': False, 'phonon': False, 'insertion_electrodes': False, 'substrates': False}",,,,,,
mp-cslee,Nb2CuS4,-0.884403073214285,0.319830057806127,False,0.0,0.039056,28,5.471216274722352,458.4360564637853,-6.720318444642857,,False,Pnma,62,Orthorhombic,mmm,NM,,"{'materials': True, 'thermo': True, 'xas': False, 'grain_boundaries': False, 'chemenv': True, 'electronic_structure': True, 'absorption': False, 'bandstructure': False, 'dos': False, 'magnetism': True, 'elasticity': False, 'dielectric': False, 'piezoelectric': False, 'surface_properties': False, 'oxi_states': True, 'provenance': True, 'charge_density': True, 'eos': False, 'phonon': False, 'insertion_electrodes': False, 'substrates': False}",,,,,,
mp-crmde,Nb3(CuS3)2,-1.0980409045454531,0.051454356883113006,False,0.0,0.0021391,22,4.918228181031594,403.94073885620503,-6.855014971363636,,False,P3m1,156,Trigonal,3m,NM,,"{'materials': True, 'thermo': True, 'xas': False, 'grain_boundaries': False, 'chemenv': True, 'electronic_structure': True, 'absorption': False, 'bandstructure': False, 'dos': False, 'magnetism': True, 'elasticity': False, 'dielectric': False, 'piezoelectric': False, 'surface_properties': False, 'oxi_states': True, 'provenance': True, 'charge_density': True, 'eos': False, 'phonon': False, 'insertion_electrodes': False, 'substrates': False}",,,,,,
mp-bnidm,Nb24(CuS8)5,-1.279653317536231,0.03754823492754,False,0.0,0.782334499999999,69,4.960469708124676,1282.1371812165823,-7.488686111884058,,False,Cm,8,Monoclinic,m,NM,,"{'materials': True, 'thermo': True, 'xas': False, 'grain_boundaries': False, 'chemenv': True, 'electronic_structure': True, 'absorption': False, 'bandstructure': False, 'dos': False, 'magnetism': True, 'elasticity': False, 'dielectric': False, 'piezoelectric': False, 'surface_properties': False, 'oxi_states': True, 'provenance': True, 'charge_density': False, 'eos': False, 'phonon': False, 'insertion_electrodes': False, 'substrates': True}",,,,,,
mp-bmlqf,Cu(Mo3S4)2,-0.7055114344999991,0.067402601666668,False,0.0,0.0010084,30,5.494787996731791,541.3693143657857,-16.14224279833333,,False,P1,1,Triclinic,1,NM,,"{'materials': True, 'thermo': True, 'xas': True, 'grain_boundaries': False, 'chemenv': True, 'electronic_structure': True, 'absorption': False, 'bandstructure': False, 'dos': False, 'magnetism': True, 'elasticity': False, 'dielectric': False, 'piezoelectric': False, 'surface_properties': False, 'oxi_states': True, 'provenance': True, 'charge_density': True, 'eos': False, 'phonon': False, 'insertion_electrodes': False, 'substrates': True}",,,,,,
mp-bmlrp,Cu3(Mo3S4)4,-0.6779221646774191,0.070059160645159,False,0.0,0.0003594,31,5.635070548039845,546.6178639012173,-15.966591097419355,,False,P1,1,Triclinic,1,NM,,"{'materials': True, 'thermo': True, 'xas': True, 'grain_boundaries': False, 'chemenv': True, 'electronic_structure': True, 'absorption': False, 'bandstructure': False, 'dos': False, 'magnetism': True, 'elasticity': False, 'dielectric': False, 'piezoelectric': False, 'surface_properties': False, 'oxi_states': True, 'provenance': True, 'charge_density': True, 'eos': False, 'phonon': False, 'insertion_electrodes': False, 'substrates': True}",,,,,,
mp-xcn,Cu(RhS2)2,-0.5615106980357121,0.0,True,0.0,5.0400000000000005e-05,14,5.612007952010777,235.3020764369096,-13.597996722142856,,False,Fd-3m,227,Cubic,m-3m,NM,"icsd-41900,icsd-628767","{'materials': True, 'thermo': True, 'xas': True, 'grain_boundaries': False, 'chemenv': True, 'electronic_structure': True, 'absorption': False, 'bandstructure': True, 'dos': True, 'magnetism': True, 'elasticity': False, 'dielectric': False, 'piezoelectric': False, 'surface_properties': False, 'oxi_states': True, 'provenance': True, 'charge_density': True, 'eos': False, 'phonon': False, 'insertion_electrodes': True, 'substrates': True}",,,,,,
mp-crthc,Cu3Pd13S7,-0.314113620095107,0.005943217065215001,False,0.0,0.049299699999999,23,8.204970912341734,363.9948942851584,-17.15170255576087,,False,R3m,160,Trigonal,3m,NM,,"{'materials': True, 'thermo': True, 'xas': False, 'grain_boundaries': False, 'chemenv': True, 'electronic_structure': True, 'absorption': False, 'bandstructure': False, 'dos': True, 'magnetism': True, 'elasticity': False, 'dielectric': False, 'piezoelectric': False, 'surface_properties': False, 'oxi_states': True, 'provenance': True, 'charge_density': True, 'eos': False, 'phonon': False, 'insertion_electrodes': False, 'substrates': False}",,,,,,
mp-cqpdy,CuAgS,-0.083107833159724,0.10208244555555601,False,0.0,1e-07,6,6.878229007715132,98.24772058665614,-13.495344623888892,,False,P4/nmm,129,Tetragonal,4/mmm,NM,icsd-251149,"{'materials': True, 'thermo': True, 'xas': True, 'grain_boundaries': False, 'chemenv': True, 'electronic_structure': True, 'absorption': False, 'bandstructure': False, 'dos': True, 'magnetism': True, 'elasticity': False, 'dielectric': False, 'piezoelectric': False, 'surface_properties': False, 'oxi_states': True, 'provenance': True, 'charge_density': True, 'eos': False, 'phonon': False, 'insertion_electrodes': False, 'substrates': False}",,,,,,
mp-cjikh,CuAgS,-0.15457512815972202,0.030615150555558003,False,0.6381999999999991,0.0027642,6,6.08884614605328,110.98495601158456,-13.56681191888889,,False,Cmc2_1,36,Orthorhombic,mm2,NM,"icsd-251148,icsd-66580","{'materials': True, 'thermo': True, 'xas': True, 'grain_boundaries': False, 'chemenv': True, 'electronic_structure': True, 'absorption': False, 'bandstructure': True, 'dos': True, 'magnetism': True, 'elasticity': False, 'dielectric': False, 'piezoelectric': False, 'surface_properties': False, 'oxi_states': True, 'provenance': True, 'charge_density': True, 'eos': False, 'phonon': False, 'insertion_electrodes': False, 'substrates': False}",,,,,,
mp-hkw,CuAgS,-0.16145748815972402,0.023732790555555,False,0.5674,0.0006202,12,6.12645663731032,220.60723243042844,-13.573694278888892,,False,Pnma,62,Orthorhombic,mmm,NM,icsd-66581,"{'materials': True, 'thermo': True, 'xas': True, 'grain_boundaries': False, 'chemenv': True, 'electronic_structure': True, 'absorption': False, 'bandstructure': True, 'dos': True, 'magnetism': True, 'elasticity': True, 'dielectric': False, 'piezoelectric': False, 'surface_properties': False, 'oxi_states': True, 'provenance': True, 'charge_density': True, 'eos': False, 'phonon': False, 'insertion_electrodes': False, 'substrates': True}",,,,,,
mp-net,CuAgS,-0.161548739826391,0.023641538888888,False,0.26270000000000004,2.1e-06,6,5.9220796908548845,114.11030532476309,-13.57378553055556,,False,Cmcm,63,Orthorhombic,mmm,NM,icsd-30233,"{'materials': True, 'thermo': True, 'xas': True, 'grain_boundaries': False, 'chemenv': True, 'electronic_structure': True, 'absorption': False, 'bandstructure': True, 'dos': True, 'magnetism': True, 'elasticity': True, 'dielectric': False, 'piezoelectric': False, 'surface_properties': False, 'oxi_states': True, 'provenance': True, 'charge_density': True, 'eos': False, 'phonon': False, 'insertion_electrodes': False, 'substrates': True}",,,,,,
mp-imf,CuAg3S2,-0.10558837246527701,0.04619369986111,False,0.0,6.55e-05,24,6.5816035111079145,455.43251885894466,-15.269338687361113,,False,I4_1/amd,141,Tetragonal,4/mmm,NM,"icsd-67526,icsd-163982","{'materials': True, 'thermo': True, 'xas': True, 'grain_boundaries': False, 'chemenv': True, 'electronic_structure': True, 'absorption': False, 'bandstructure': True, 'dos': True, 'magnetism': True, 'elasticity': False, 'dielectric': False, 'piezoelectric': False, 'surface_properties': False, 'oxi_states': True, 'provenance': True, 'charge_density': True, 'eos': False, 'phonon': False, 'insertion_electrodes': False, 'substrates': True}",,,,,,
mp-bkrzf,CuAg3S2,-0.112988973298608,0.038793099027779006,False,0.18280000000000002,6.570000000000001e-05,24,6.624135392223518,452.50830300263397,-15.276739288194443,,False,I4_1/a,88,Tetragonal,4/m,NM,icsd-163983,"{'materials': True, 'thermo': True, 'xas': True, 'grain_boundaries': False, 'chemenv': True, 'electronic_structure': True, 'absorption': False, 'bandstructure': True, 'dos': True, 'magnetism': True, 'elasticity': False, 'dielectric': False, 'piezoelectric': False, 'surface_properties': False, 'oxi_states': True, 'provenance': True, 'charge_density': True, 'eos': False, 'phonon': False, 'insertion_electrodes': False, 'substrates': True}",,,,,,
mp-crhsp,TaCuS2,-1.011595851833333,0.06182721499999601,False,0.0,0.0006336,8,7.812024902332793,131.20337326949254,-7.07182826125,,False,P6_3mc,186,Hexagonal,6mm,NM,,"{'materials': True, 'thermo': True, 'xas': False, 'grain_boundaries': False, 'chemenv': True, 'electronic_structure': True, 'absorption': False, 'bandstructure': True, 'dos': True, 'magnetism': True, 'elasticity': False, 'dielectric': False, 'piezoelectric': False, 'surface_properties': False, 'oxi_states': True, 'provenance': True, 'charge_density': True, 'eos': False, 'phonon': False, 'insertion_electrodes': False, 'substrates': False}",,,,,,
mp-pxk,TaCu3S4,-0.8680332296666661,0.0,True,1.9231,0.0,8,5.025571147896058,165.15806593774687,-5.957300530000001,6.368539509999998,False,P-43m,215,Cubic,-43m,NM,"icsd-185524,icsd-183995,icsd-628903,icsd-53335,icsd-628897","{'materials': True, 'thermo': True, 'xas': True, 'grain_boundaries': False, 'chemenv': True, 'electronic_structure': True, 'absorption': True, 'bandstructure': True, 'dos': True, 'magnetism': True, 'elasticity': True, 'dielectric': True, 'piezoelectric': True, 'surface_properties': False, 'oxi_states': True, 'provenance': True, 'charge_density': True, 'eos': False, 'phonon': True, 'insertion_electrodes': False, 'substrates': True}",,,,,,
mp-epi,TaCuS3,-1.065123988466663,0.0,True,0.41800000000000004,0.0,20,5.686581690665911,397.93832257772516,-6.740789458499998,24.44468542333333,False,Pnma,62,Orthorhombic,mmm,NM,"icsd-62537,icsd-187747,icsd-43272","{'materials': True, 'thermo': True, 'xas': True, 'grain_boundaries': False, 'chemenv': True, 'electronic_structure': True, 'absorption': False, 'bandstructure': True, 'dos': True, 'magnetism': True, 'elasticity': True, 'dielectric': True, 'piezoelectric': False, 'surface_properties': False, 'oxi_states': True, 'provenance': True, 'charge_density': True, 'eos': False, 'phonon': False, 'insertion_electrodes': False, 'substrates': True}",,,,,,
mp-critk,Ta3(CuS3)2,-1.084991366999998,0.086015615000001,False,0.0,0.0010879,22,7.025323483664945,407.6468269910458,-7.323498843636363,,False,P3m1,156,Trigonal,3m,NM,,"{'materials': True, 'thermo': True, 'xas': False, 'grain_boundaries': False, 'chemenv': True, 'electronic_structure': True, 'absorption': False, 'bandstructure': False, 'dos': False, 'magnetism': True, 'elasticity': False, 'dielectric': False, 'piezoelectric': False, 'surface_properties': False, 'oxi_states': True, 'provenance': True, 'charge_density': True, 'eos': False, 'phonon': False, 'insertion_electrodes': False, 'substrates': False}",,,,,,
mp-crhwf,Ta3(CuS3)2,-1.171006981999999,0.0,True,0.0,0.0,22,7.511371057775355,381.2687197415438,-7.409514458636365,,False,Cmc2_1,36,Orthorhombic,mm2,NM,,"{'materials': True, 'thermo': True, 'xas': False, 'grain_boundaries': False, 'chemenv': True, 'electronic_structure': True, 'absorption': False, 'bandstructure': False, 'dos': False, 'magnetism': True, 'elasticity': False, 'dielectric': False, 'piezoelectric': False, 'surface_properties': False, 'oxi_states': True, 'provenance': True, 'charge_density': True, 'eos': False, 'phonon': False, 'insertion_electrodes': False, 'substrates': False}",,,,,,
mp-cricl,Ta8(CuS8)3,-1.112553872819046,0.014587451023809001,False,0.0,2e-07,35,5.595906273642069,714.4891792722178,-7.013427742857142,,False,Pm,6,Monoclinic,m,NM,,"{'materials': True, 'thermo': True, 'xas': False, 'grain_boundaries': False, 'chemenv': True, 'electronic_structure': True, 'absorption': False, 'bandstructure': False, 'dos': False, 'magnetism': True, 'elasticity': False, 'dielectric': False, 'piezoelectric': False, 'surface_properties': False, 'oxi_states': True, 'provenance': True, 'charge_density': True, 'eos': False, 'phonon': False, 'insertion_electrodes': False, 'substrates': False}",,,,,,
mp-bmngw,Ta14(CuS8)3,-1.301147123479672,0.0,True,0.0,2.2e-06,41,7.866277541940848,737.4568965256948,-8.075102018780488,,False,P1,1,Triclinic,1,NM,,"{'materials': True, 'thermo': True, 'xas': True, 'grain_boundaries': False, 'chemenv': True, 'electronic_structure': True, 'absorption': False, 'bandstructure': True, 'dos': True, 'magnetism': True, 'elasticity': False, 'dielectric': False, 'piezoelectric': False, 'surface_properties': False, 'oxi_states': True, 'provenance': True, 'charge_density': True, 'eos': False, 'phonon': False, 'insertion_electrodes': False, 'substrates': True}",,,,,,
mp-bnbiv,Ta22(CuS12)3,-1.276533301333331,0.032791840819671,False,0.0,0.9139005,61,7.765692878627078,1138.8231769689717,-8.19975204885246,,False,Cm,8,Monoclinic,m,NM,,"{'materials': True, 'thermo': True, 'xas': False, 'grain_boundaries': False, 'chemenv': True, 'electronic_structure': True, 'absorption': False, 'bandstructure': False, 'dos': False, 'magnetism': True, 'elasticity': False, 'dielectric': False, 'piezoelectric': False, 'surface_properties': False, 'oxi_states': True, 'provenance': True, 'charge_density': True, 'eos': False, 'phonon': False, 'insertion_electrodes': False, 'substrates': True}",,,,,,
mp-nhg,Cu2WS4,-0.533234831607141,0.0041768395238110005,False,1.4443000000000001,0.0,7,4.537052817275628,160.7421167682391,-15.561454158571427,16.8747999,False,P-42m,111,Tetragonal,-42m,NM,icsd-72529,"{'materials': True, 'thermo': True, 'xas': True, 'grain_boundaries': False, 'chemenv': True, 'electronic_structure': True, 'absorption': False, 'bandstructure': True, 'dos': True, 'magnetism': True, 'elasticity': True, 'dielectric': True, 'piezoelectric': True, 'surface_properties': False, 'oxi_states': True, 'provenance': True, 'charge_density': True, 'eos': False, 'phonon': False, 'insertion_electrodes': True, 'substrates': True}",,,,,,
mp-bfsnl,Cu2WS4,-0.536397687321427,0.0010139838095240001,False,1.5621,0.0,7,4.71550628877644,154.65899716304307,-15.564617014285714,6.349045660000186,False,I-42m,121,Tetragonal,-42m,NM,icsd-98909,"{'materials': True, 'thermo': True, 'xas': True, 'grain_boundaries': False, 'chemenv': True, 'electronic_structure': True, 'absorption': False, 'bandstructure': True, 'dos': True, 'magnetism': True, 'elasticity': False, 'dielectric': True, 'piezoelectric': True, 'surface_properties': False, 'oxi_states': True, 'provenance': True, 'charge_density': True, 'eos': False, 'phonon': False, 'insertion_electrodes': True, 'substrates': True}",,,,,,