material_id,formula_pretty,formation_energy_per_atom,energy_above_hull,is_stable,band_gap,total_magnetization,nsites,density,volume,energy_per_atom,e_total,is_magnetic,space_group_symbol,space_group_number,crystal_system,point_group,ordering,icsd_ids,has_props,lattice_a,lattice_b,lattice_c,lattice_alpha,lattice_beta,lattice_gamma
mp-oat,Zr9V4S,-0.239435776249999,0.035928944196427004,False,0.0,0.0017426,28,6.334577929791492,554.0813453933704,-8.625316323571429,,False,P6_3/mmc,194,Hexagonal,6/mmm,NM,"icsd-152859,icsd-81823","{'materials': True, 'thermo': True, 'xas': True, 'grain_boundaries': False, 'chemenv': True, 'electronic_structure': True, 'absorption': False, 'bandstructure': True, 'dos': True, 'magnetism': True, 'elasticity': False, 'dielectric': False, 'piezoelectric': False, 'surface_properties': False, 'oxi_states': True, 'provenance': True, 'charge_density': True, 'eos': False, 'phonon': False, 'insertion_electrodes': False, 'substrates': True}",,,,,,
mp-xpu,Nb3VS6,-1.461424902999999,0.0,True,0.0,4.0287043,20,4.829383632943415,359.0046052875624,-7.882645649500001,,True,P6_322,182,Hexagonal,622,FM,"icsd-645338,icsd-42650,icsd-645340","{'materials': True, 'thermo': True, 'xas': True, 'grain_boundaries': False, 'chemenv': True, 'electronic_structure': True, 'absorption': False, 'bandstructure': True, 'dos': True, 'magnetism': True, 'elasticity': False, 'dielectric': False, 'piezoelectric': False, 'surface_properties': False, 'oxi_states': True, 'provenance': True, 'charge_density': True, 'eos': False, 'phonon': False, 'insertion_electrodes': False, 'substrates': True}",,,,,,
mp-cpyvm,Nb4VS8,-1.448890523846156,0.0,True,0.0,3.7396669,26,4.726976131310239,477.11284973990735,-7.801837287692312,,True,P6_3/mmc,194,Hexagonal,6/mmm,FM,icsd-645339,"{'materials': True, 'thermo': True, 'xas': False, 'grain_boundaries': False, 'chemenv': True, 'electronic_structure': True, 'absorption': False, 'bandstructure': True, 'dos': True, 'magnetism': True, 'elasticity': False, 'dielectric': False, 'piezoelectric': False, 'surface_properties': False, 'oxi_states': True, 'provenance': True, 'charge_density': True, 'eos': False, 'phonon': False, 'insertion_electrodes': False, 'substrates': False}",,,,,,
mp-crlpn,Nb5V3S20,-1.1819580210714271,0.013860526194195002,False,0.0,1.4158475,28,3.69391694583044,565.8080986323438,-6.9143222232142865,,True,Cm,8,Monoclinic,m,FiM,,"{'materials': True, 'thermo': True, 'xas': False, 'grain_boundaries': False, 'chemenv': True, 'electronic_structure': True, 'absorption': False, 'bandstructure': False, 'dos': False, 'magnetism': True, 'elasticity': False, 'dielectric': False, 'piezoelectric': False, 'surface_properties': False, 'oxi_states': True, 'provenance': True, 'charge_density': True, 'eos': False, 'phonon': False, 'insertion_electrodes': False, 'substrates': False}",,,,,,
mp-crfrf,V2MoS4,-1.169419651428571,0.07889674,False,0.0,2.4910613,7,4.857289368628735,111.47648809051528,-7.6784272371428575,,True,Cm,8,Monoclinic,m,FM,,"{'materials': True, 'thermo': True, 'xas': False, 'grain_boundaries': False, 'chemenv': True, 'electronic_structure': True, 'absorption': False, 'bandstructure': True, 'dos': True, 'magnetism': True, 'elasticity': False, 'dielectric': False, 'piezoelectric': False, 'surface_properties': False, 'oxi_states': True, 'provenance': True, 'charge_density': True, 'eos': False, 'phonon': False, 'insertion_electrodes': False, 'substrates': False}",,,,,,
mp-ckqqw,V(MoS2)2,-0.5266630821428561,0.6129021121428581,False,0.0,5.677395,56,4.567521821890384,1079.2641641063904,-7.2873483878571435,,True,P1,1,Triclinic,1,FiM,,"{'materials': True, 'thermo': True, 'xas': False, 'grain_boundaries': False, 'chemenv': True, 'electronic_structure': True, 'absorption': False, 'bandstructure': False, 'dos': False, 'magnetism': True, 'elasticity': False, 'dielectric': False, 'piezoelectric': False, 'surface_properties': False, 'oxi_states': True, 'provenance': True, 'charge_density': True, 'eos': False, 'phonon': False, 'insertion_electrodes': False, 'substrates': False}",,,,,,
mp-bnapu,V(MoS2)2,-0.8150397566071421,0.324525437678572,False,0.0,8.1176228,56,5.115870450647009,963.5823793225211,-7.575725062321429,,True,P1,1,Triclinic,1,FiM,,"{'materials': True, 'thermo': True, 'xas': False, 'grain_boundaries': False, 'chemenv': True, 'electronic_structure': True, 'absorption': False, 'bandstructure': False, 'dos': False, 'magnetism': True, 'elasticity': False, 'dielectric': False, 'piezoelectric': False, 'surface_properties': False, 'oxi_states': True, 'provenance': True, 'charge_density': True, 'eos': False, 'phonon': False, 'insertion_electrodes': False, 'substrates': True}",,,,,,
mp-bfpok,V(MoS2)2,-1.041181168571429,0.098384025714286,False,0.0,2.0982539,7,5.417967945934413,113.73181491502076,-7.801866474285715,,True,C2/m,12,Monoclinic,2/m,FM,icsd-201787,"{'materials': True, 'thermo': True, 'xas': True, 'grain_boundaries': False, 'chemenv': True, 'electronic_structure': True, 'absorption': False, 'bandstructure': True, 'dos': True, 'magnetism': True, 'elasticity': True, 'dielectric': False, 'piezoelectric': False, 'surface_properties': False, 'oxi_states': True, 'provenance': True, 'charge_density': True, 'eos': False, 'phonon': False, 'insertion_electrodes': False, 'substrates': True}",,,,,,
mp-cpwkg,V(MoS2)2,-1.041661281785714,0.09790391250000101,False,0.0,8.955881399999999,28,5.386953192859946,457.54645015980793,-7.8023465875,,True,C2/c,15,Monoclinic,2/m,FM,,"{'materials': True, 'thermo': True, 'xas': False, 'grain_boundaries': False, 'chemenv': True, 'electronic_structure': True, 'absorption': False, 'bandstructure': True, 'dos': True, 'magnetism': True, 'elasticity': False, 'dielectric': False, 'piezoelectric': False, 'surface_properties': False, 'oxi_states': True, 'provenance': True, 'charge_density': True, 'eos': False, 'phonon': False, 'insertion_electrodes': False, 'substrates': False}",,,,,,
mp-zhx,Hf9V4S,-0.23942527053571203,0.016768643214289003,False,0.0,0.4870562,28,11.409114765939167,536.2577576526697,-9.531405503571426,,False,P6_3/mmc,194,Hexagonal,6/mmm,NM,icsd-81822,"{'materials': True, 'thermo': True, 'xas': True, 'grain_boundaries': False, 'chemenv': True, 'electronic_structure': True, 'absorption': False, 'bandstructure': True, 'dos': True, 'magnetism': True, 'elasticity': False, 'dielectric': False, 'piezoelectric': False, 'surface_properties': False, 'oxi_states': True, 'provenance': True, 'charge_density': True, 'eos': False, 'phonon': False, 'insertion_electrodes': False, 'substrates': True}",,,,,,
mp-cpsmu,Ta3VS6,-1.438025441199998,0.0,True,0.0,4.0577323,20,7.38298080009231,353.64429855849056,-8.3889329385,,True,P6_322,182,Hexagonal,622,FM,icsd-651111,"{'materials': True, 'thermo': True, 'xas': True, 'grain_boundaries': False, 'chemenv': True, 'electronic_structure': True, 'absorption': False, 'bandstructure': False, 'dos': True, 'magnetism': True, 'elasticity': False, 'dielectric': False, 'piezoelectric': False, 'surface_properties': False, 'oxi_states': True, 'provenance': True, 'charge_density': True, 'eos': False, 'phonon': False, 'insertion_electrodes': False, 'substrates': False}",,,,,,
mp-qon,VAuS2,-0.9557162937499981,0.0,True,0.0,0.0,8,7.662633870504031,135.24107052418606,-6.113862167499999,,False,P6_3/mmc,194,Hexagonal,6/mmm,NM,icsd-96089,"{'materials': True, 'thermo': True, 'xas': True, 'grain_boundaries': False, 'chemenv': True, 'electronic_structure': True, 'absorption': False, 'bandstructure': True, 'dos': True, 'magnetism': True, 'elasticity': True, 'dielectric': False, 'piezoelectric': False, 'surface_properties': False, 'oxi_states': True, 'provenance': True, 'charge_density': True, 'eos': False, 'phonon': False, 'insertion_electrodes': True, 'substrates': True}",,,,,,
mp-cjiro,Mn(CrS2)2,-0.9324334982758611,0.052288982142856,False,0.0,10.9999961,7,3.795450168298019,125.64797328976013,-7.363533652857143,,True,C2/m,12,Monoclinic,2/m,FM,icsd-626279,"{'materials': True, 'thermo': True, 'xas': True, 'grain_boundaries': False, 'chemenv': True, 'electronic_structure': True, 'absorption': False, 'bandstructure': True, 'dos': True, 'magnetism': True, 'elasticity': False, 'dielectric': False, 'piezoelectric': False, 'surface_properties': False, 'oxi_states': True, 'provenance': True, 'charge_density': True, 'eos': False, 'phonon': False, 'insertion_electrodes': False, 'substrates': False}",,,,,,
mp-xqk,Mn(CrS2)2,-0.9847224804187181,0.0,True,0.0,21.9999988,14,3.67449188977367,259.56819918211835,-7.415822635,,True,Fd-3m,227,Cubic,m-3m,FM,"icsd-603551,icsd-53133,icsd-626287,icsd-164401,icsd-626282,icsd-626284,icsd-656169","{'materials': True, 'thermo': True, 'xas': True, 'grain_boundaries': False, 'chemenv': True, 'electronic_structure': True, 'absorption': False, 'bandstructure': True, 'dos': True, 'magnetism': True, 'elasticity': False, 'dielectric': False, 'piezoelectric': False, 'surface_properties': False, 'oxi_states': True, 'provenance': True, 'charge_density': True, 'eos': False, 'phonon': False, 'insertion_electrodes': False, 'substrates': True}",,,,,,
mp-crokg,Mn2Cr13S20,-0.9124233007389141,0.049109983714290005,False,0.0,28.0118752,35,4.449170010785949,532.6381004292382,-7.385611927714285,,True,P-1,2,Triclinic,-1,FM,,"{'materials': True, 'thermo': True, 'xas': False, 'grain_boundaries': False, 'chemenv': True, 'electronic_structure': True, 'absorption': False, 'bandstructure': False, 'dos': False, 'magnetism': True, 'elasticity': False, 'dielectric': False, 'piezoelectric': False, 'surface_properties': False, 'oxi_states': True, 'provenance': True, 'charge_density': True, 'eos': False, 'phonon': False, 'insertion_electrodes': False, 'substrates': False}",,,,,,
mp-crtzc,CrFeS2,-0.602747956249999,0.20747324624999802,False,0.0,0.3718897,4,5.7190289858929155,49.9323802310804,-7.2022139825,,True,P-3m1,164,Trigonal,-3m,FiM,,"{'materials': True, 'thermo': True, 'xas': False, 'grain_boundaries': False, 'chemenv': True, 'electronic_structure': True, 'absorption': False, 'bandstructure': True, 'dos': True, 'magnetism': True, 'elasticity': False, 'dielectric': False, 'piezoelectric': False, 'surface_properties': False, 'oxi_states': True, 'provenance': True, 'charge_density': True, 'eos': False, 'phonon': False, 'insertion_electrodes': False, 'substrates': False}",,,,,,
mp-crucu,CrFeS4,-0.5487344591666651,0.309598198333331,False,0.0,5.960605099999999,12,3.550298664483709,220.85753186865844,-6.3275110475,,True,Imma,74,Orthorhombic,mmm,FM,,"{'materials': True, 'thermo': True, 'xas': False, 'grain_boundaries': False, 'chemenv': True, 'electronic_structure': True, 'absorption': False, 'bandstructure': False, 'dos': True, 'magnetism': True, 'elasticity': False, 'dielectric': False, 'piezoelectric': False, 'surface_properties': False, 'oxi_states': True, 'provenance': True, 'charge_density': True, 'eos': False, 'phonon': False, 'insertion_electrodes': False, 'substrates': False}",,,,,,
mp-cjjbb,Cr2FeS4,-0.8477451057142841,0.07822198285714001,False,0.0,3.0053324,7,4.8959104886892035,97.71352165920749,-7.179988962857143,,True,C2/m,12,Monoclinic,2/m,FM,icsd-625931,"{'materials': True, 'thermo': True, 'xas': False, 'grain_boundaries': False, 'chemenv': True, 'electronic_structure': True, 'absorption': False, 'bandstructure': True, 'dos': True, 'magnetism': True, 'elasticity': False, 'dielectric': False, 'piezoelectric': False, 'surface_properties': False, 'oxi_states': True, 'provenance': True, 'charge_density': True, 'eos': False, 'phonon': False, 'insertion_electrodes': False, 'substrates': False}",,,,,,
mp-bfcl,Cr2FeS4,-0.8455316614285701,0.08043542714285401,False,0.0,20.000001,14,3.815453927445032,250.76788485737285,-7.177775518571429,,True,Fd-3m,227,Cubic,m-3m,FM,"icsd-36251,icsd-658964,icsd-43270,icsd-603366,icsd-625941,icsd-625930,icsd-95399,icsd-625936,icsd-625938,icsd-625944,icsd-625937,icsd-600693,icsd-95400,icsd-625946,icsd-43268,icsd-625932","{'materials': True, 'thermo': True, 'xas': True, 'grain_boundaries': False, 'chemenv': True, 'electronic_structure': True, 'absorption': False, 'bandstructure': True, 'dos': True, 'magnetism': True, 'elasticity': False, 'dielectric': False, 'piezoelectric': False, 'surface_properties': False, 'oxi_states': True, 'provenance': True, 'charge_density': True, 'eos': False, 'phonon': False, 'insertion_electrodes': False, 'substrates': True}",,,,,,
mp-crurb,Cr12Fe3S20,-0.8939817408571411,0.044049386857142006,False,0.0,17.947741100000002,35,4.66643641395626,509.85389475100095,-7.293827098571429,,True,P-1,2,Triclinic,-1,FiM,,"{'materials': True, 'thermo': True, 'xas': False, 'grain_boundaries': False, 'chemenv': True, 'electronic_structure': True, 'absorption': False, 'bandstructure': False, 'dos': False, 'magnetism': True, 'elasticity': False, 'dielectric': False, 'piezoelectric': False, 'surface_properties': False, 'oxi_states': True, 'provenance': True, 'charge_density': True, 'eos': False, 'phonon': False, 'insertion_electrodes': False, 'substrates': False}",,,,,,
mp-bfnf,Cr2CoS4,-0.8285461771428551,0.082736585059521,False,0.0,14.8399854,14,4.135140243748833,233.86134230963765,-6.969846535714285,,True,Fd-3m,227,Cubic,m-3m,FM,"icsd-622501,icsd-622504,icsd-603918,icsd-290808,icsd-622503,icsd-43039,icsd-52942,icsd-622497,icsd-169878","{'materials': True, 'thermo': True, 'xas': True, 'grain_boundaries': False, 'chemenv': True, 'electronic_structure': True, 'absorption': False, 'bandstructure': True, 'dos': True, 'magnetism': True, 'elasticity': False, 'dielectric': False, 'piezoelectric': False, 'surface_properties': False, 'oxi_states': True, 'provenance': True, 'charge_density': True, 'eos': False, 'phonon': False, 'insertion_electrodes': False, 'substrates': True}",,,,,,
mp-bose,Cr2NiS4,-0.828262072857142,0.059820879523808004,False,0.0,0.0017588999999990002,7,4.883169724819354,98.93707617816817,-6.776236711428572,,False,C2/m,12,Monoclinic,2/m,NM,icsd-16884,"{'materials': True, 'thermo': True, 'xas': True, 'grain_boundaries': False, 'chemenv': True, 'electronic_structure': True, 'absorption': False, 'bandstructure': True, 'dos': True, 'magnetism': True, 'elasticity': True, 'dielectric': False, 'piezoelectric': False, 'surface_properties': False, 'oxi_states': True, 'provenance': True, 'charge_density': True, 'eos': False, 'phonon': False, 'insertion_electrodes': False, 'substrates': True}",,,,,,
mp-crtuw,Cr5NiS8,-0.917959574999999,0.020007029285711003,False,0.0,13.9226928,14,4.247546082271346,224.86676384903714,-7.142570698571428,,True,P2/m,10,Monoclinic,2/m,FiM,,"{'materials': True, 'thermo': True, 'xas': False, 'grain_boundaries': False, 'chemenv': True, 'electronic_structure': True, 'absorption': False, 'bandstructure': False, 'dos': True, 'magnetism': True, 'elasticity': False, 'dielectric': False, 'piezoelectric': False, 'surface_properties': False, 'oxi_states': True, 'provenance': True, 'charge_density': True, 'eos': False, 'phonon': False, 'insertion_electrodes': False, 'substrates': False}",,,,,,
mp-cruhg,Cr5NiS8,-0.8939634349999991,0.044003169285710006,False,0.0,13.89071,14,4.315115674664169,221.34561708924483,-7.118574558571429,,True,P-1,2,Triclinic,-1,FiM,,"{'materials': True, 'thermo': True, 'xas': False, 'grain_boundaries': False, 'chemenv': True, 'electronic_structure': True, 'absorption': False, 'bandstructure': False, 'dos': True, 'magnetism': True, 'elasticity': False, 'dielectric': False, 'piezoelectric': False, 'surface_properties': False, 'oxi_states': True, 'provenance': True, 'charge_density': True, 'eos': False, 'phonon': False, 'insertion_electrodes': False, 'substrates': False}",,,,,,
mp-crujh,Cr11NiS16,-0.6468504657142851,0.29988235416666603,False,0.0,0.145532,28,4.066046150119388,467.07358579624685,-7.009779831785714,,True,C2/m,12,Monoclinic,2/m,FiM,,"{'materials': True, 'thermo': True, 'xas': False, 'grain_boundaries': False, 'chemenv': True, 'electronic_structure': True, 'absorption': False, 'bandstructure': False, 'dos': False, 'magnetism': True, 'elasticity': False, 'dielectric': False, 'piezoelectric': False, 'surface_properties': False, 'oxi_states': True, 'provenance': True, 'charge_density': False, 'eos': False, 'phonon': False, 'insertion_electrodes': False, 'substrates': False}",,,,,,
mp-crtzz,Cr11NiS16,-0.9336796671428561,0.013053152738095,False,0.0,33.4468598,28,4.091222461151076,464.1993373332621,-7.296609033214286,,True,P-1,2,Triclinic,-1,FiM,,"{'materials': True, 'thermo': True, 'xas': False, 'grain_boundaries': False, 'chemenv': True, 'electronic_structure': True, 'absorption': False, 'bandstructure': False, 'dos': True, 'magnetism': True, 'elasticity': False, 'dielectric': False, 'piezoelectric': False, 'surface_properties': False, 'oxi_states': True, 'provenance': True, 'charge_density': True, 'eos': False, 'phonon': False, 'insertion_electrodes': False, 'substrates': False}",,,,,,
mp-crubt,CrCuS4,-0.6450230708333321,0.0055922725000020004,False,0.0,5.001119,12,4.227881875463446,191.51098516665266,-5.695330569166667,,True,P2_1/c,14,Monoclinic,2/m,FM,,"{'materials': True, 'thermo': True, 'xas': False, 'grain_boundaries': False, 'chemenv': True, 'electronic_structure': True, 'absorption': False, 'bandstructure': False, 'dos': True, 'magnetism': True, 'elasticity': False, 'dielectric': False, 'piezoelectric': False, 'surface_properties': False, 'oxi_states': True, 'provenance': True, 'charge_density': True, 'eos': False, 'phonon': False, 'insertion_electrodes': False, 'substrates': False}",,,,,,
mp-crtzi,CrCuS2,-0.551393798749998,0.25455741750000904,False,0.0,2.9999927,4,3.969820155878783,75.15517819774298,-6.05815619,,True,R3m,160,Trigonal,3m,FM,,"{'materials': True, 'thermo': True, 'xas': False, 'grain_boundaries': False, 'chemenv': True, 'electronic_structure': True, 'absorption': False, 'bandstructure': False, 'dos': False, 'magnetism': True, 'elasticity': False, 'dielectric': False, 'piezoelectric': False, 'surface_properties': False, 'oxi_states': True, 'provenance': True, 'charge_density': True, 'eos': False, 'phonon': False, 'insertion_electrodes': False, 'substrates': False}",,,,,,
mp-bfpnl,CrCuS2,-0.582945566249998,0.22300565000000902,False,0.0,1.1338207,4,4.98817818906053,59.811925300177236,-6.0897079575,,True,R3m,160,Trigonal,3m,FM,icsd-25627,"{'materials': True, 'thermo': True, 'xas': True, 'grain_boundaries': False, 'chemenv': True, 'electronic_structure': True, 'absorption': False, 'bandstructure': True, 'dos': True, 'magnetism': True, 'elasticity': False, 'dielectric': False, 'piezoelectric': False, 'surface_properties': False, 'oxi_states': True, 'provenance': True, 'charge_density': True, 'eos': False, 'phonon': False, 'insertion_electrodes': False, 'substrates': True}",,,,,,
mp-irm,CrCuS2,-0.768421636249998,0.037529580000009,False,0.219699999999999,2.999999899999999,4,4.571350212040583,65.26573712121733,-6.2751840275,,True,R3m,160,Trigonal,3m,FM,"icsd-24796,icsd-625764,icsd-42393,icsd-100594,icsd-42394","{'materials': True, 'thermo': True, 'xas': True, 'grain_boundaries': False, 'chemenv': True, 'electronic_structure': True, 'absorption': False, 'bandstructure': True, 'dos': True, 'magnetism': True, 'elasticity': False, 'dielectric': False, 'piezoelectric': False, 'surface_properties': False, 'oxi_states': True, 'provenance': True, 'charge_density': True, 'eos': False, 'phonon': False, 'insertion_electrodes': False, 'substrates': True}",,,,,,
mp-csmof,Cr2CuS4,-0.8115970621428551,0.10949004214285601,False,0.0,10.0584333,14,4.249971247083777,231.1471952978498,-6.519438842142857,,True,P2/m,10,Monoclinic,2/m,FiM,,"{'materials': True, 'thermo': True, 'xas': False, 'grain_boundaries': False, 'chemenv': True, 'electronic_structure': True, 'absorption': False, 'bandstructure': False, 'dos': False, 'magnetism': True, 'elasticity': False, 'dielectric': False, 'piezoelectric': False, 'surface_properties': False, 'oxi_states': True, 'provenance': True, 'charge_density': True, 'eos': False, 'phonon': False, 'insertion_electrodes': False, 'substrates': False}",,,,,,